Title Card Required                                                     
Freq      RB3LYP                                                      TZVP                
Number of atoms                            I               18
Charge                                     I                0
Multiplicity                               I                1
Number of electrons                        I               52
Number of alpha electrons                  I               26
Number of beta electrons                   I               26
Number of basis functions                  I              186
Number of independant functions            I              186
Number of point charges in /Mol/           I                0
Number of translation vectors              I                0
Info1-9                                    I   N=           9
          46          46        1002           0           0         100
           6          18        -502
Num ILSW                                   I              100
ILSW                                       I   N=         100
           0           0           0           0           2           0
           0           0           0           0         402      200000
           5           0   200000000           0           0           0
           0      800000           1           0           1           0
           1           0           0           0     1000000           0
           0           0      100000           0          -1           0
           0           0           0           0           0           0
           0           0           0           1           0           0
           0           0           1      720000      810000           0
           0           0           0           0           0           0
           0           0           0           0           0           0
           0           0           0           0           0           0
           0           0           0           0           0           0
           0           0           0           0           0           0
           0           0           0           0           0           0
           0           0           0           0           0           0
           0           0           0           0
Number of contracted shells                I              102
Highest angular momentum                   I                2
Largest degree of contraction              I                6
Number of primitive shells                 I              180
Pure/Cartesian d shells                    I                0
Pure/Cartesian f shells                    I                0
Virial Ratio                               R      2.004973043455212E+00
SCF Energy                                 R     -3.102176759303214E+02
Total Energy                               R     -3.102176759303214E+02
RMS Force                                  R      3.522647098687134E-07
RMS Density                                R      2.019933144795636E-09
Atomic numbers                             I   N=          18
           6           1           1           6           1           1
           8           1           1           8           6           1
           1           6           1           1           1           1
Nuclear charges                            R   N=          18
  6.00000000E+00  1.00000000E+00  1.00000000E+00  6.00000000E+00  1.00000000E+00
  1.00000000E+00  8.00000000E+00  1.00000000E+00  1.00000000E+00  8.00000000E+00
  6.00000000E+00  1.00000000E+00  1.00000000E+00  6.00000000E+00  1.00000000E+00
  1.00000000E+00  1.00000000E+00  1.00000000E+00
Current cartesian coordinates              R   N=          54
  3.80215953E+00 -2.66808727E-01  8.78919111E-01  4.05284486E+00 -2.11766509E+00
  1.78712527E+00  3.12277091E+00  1.04536421E+00  2.33777257E+00  6.31272310E+00
  6.48693568E-01 -1.56425933E-01  6.10059763E+00  2.50401158E+00 -1.03317004E+00
  7.02585089E+00 -6.58910017E-01 -1.58369451E+00  2.04642820E+00 -4.31972613E-01
 -1.15003260E+00  4.28622301E-01 -1.00798753E+00 -4.99891217E-01 -3.32177553E+00
 -3.68156625E+00  1.28832006E-01 -2.90888164E+00 -1.94972864E+00  5.09014669E-01
 -4.90423396E+00 -3.39033722E-01 -4.02606226E-01 -6.69275394E+00 -8.79943192E-01
  4.89021367E-01 -5.11047490E+00 -5.62465484E-01 -2.45070464E+00 -4.24051101E+00
  2.36753596E+00  2.44129867E-01 -2.46270011E+00  2.91380469E+00 -6.45281076E-01
 -4.05510052E+00  2.60261221E+00  2.28461835E+00  7.71385110E+00  7.95831370E-01
  1.35323470E+00 -5.72293119E+00  3.63820109E+00 -4.23820291E-01
Int Atom Types                             I   N=          18
           0           0           0           0           0           0
           0           0           0           0           0           0
           0           0           0           0           0           0
Force Field                                I                0
MM charges                                 R   N=          18
  0.00000000E+00  0.00000000E+00  0.00000000E+00  0.00000000E+00  0.00000000E+00
  0.00000000E+00  0.00000000E+00  0.00000000E+00  0.00000000E+00  0.00000000E+00
  0.00000000E+00  0.00000000E+00  0.00000000E+00  0.00000000E+00  0.00000000E+00
  0.00000000E+00  0.00000000E+00  0.00000000E+00
Integer atomic weights                     I   N=          18
          12           1           1          12           1           1
          16           1           1          16          12           1
           1          12           1           1           1           1
Real atomic weights                        R   N=          18
  1.20000000E+01  1.00782504E+00  1.00782504E+00  1.20000000E+01  1.00782504E+00
  1.00782504E+00  1.59949146E+01  1.00782504E+00  1.00782504E+00  1.59949146E+01
  1.20000000E+01  1.00782504E+00  1.00782504E+00  1.20000000E+01  1.00782504E+00
  1.00782504E+00  1.00782504E+00  1.00782504E+00
Atom residue info                          I   N=          18
           0           0           0           0           0           0
           0           0           0           0           0           0
           0           0           0           0           0           0
Atom fragment info                         I   N=          18
           0           0           0           0           0           0
           0           0           0           0           0           0
           0           0           0           0           0           0
Atom residue num                           I   N=          18
           0           0           0           0           0           0
           0           0           0           0           0           0
           0           0           0           0           0           0
Nuclear spins                              I   N=          18
           0           1           1           0           1           1
           0           1           1           0           0           1
           1           0           1           1           1           1
Nuclear ZEff                               R   N=          18
 -3.60000000E+00 -1.00000000E+00 -1.00000000E+00 -3.60000000E+00 -1.00000000E+00
 -1.00000000E+00 -5.60000000E+00 -1.00000000E+00 -1.00000000E+00 -5.60000000E+00
 -3.60000000E+00 -1.00000000E+00 -1.00000000E+00 -3.60000000E+00 -1.00000000E+00
 -1.00000000E+00 -1.00000000E+00 -1.00000000E+00
Nuclear QMom                               R   N=          18
  0.00000000E+00  0.00000000E+00  0.00000000E+00  0.00000000E+00  0.00000000E+00
  0.00000000E+00  0.00000000E+00  0.00000000E+00  0.00000000E+00  0.00000000E+00
  0.00000000E+00  0.00000000E+00  0.00000000E+00  0.00000000E+00  0.00000000E+00
  0.00000000E+00  0.00000000E+00  0.00000000E+00
Nuclear GFac                               R   N=          18
  0.00000000E+00  2.79284600E+00  2.79284600E+00  0.00000000E+00  2.79284600E+00
  2.79284600E+00  0.00000000E+00  2.79284600E+00  2.79284600E+00  0.00000000E+00
  0.00000000E+00  2.79284600E+00  2.79284600E+00  0.00000000E+00  2.79284600E+00
  2.79284600E+00  2.79284600E+00  2.79284600E+00
MicOpt                                     I   N=          18
          -1          -1          -1          -1          -1          -1
          -1          -1          -1          -1          -1          -1
          -1          -1          -1          -1          -1          -1
Constraint Structure                       R   N=          54
  3.80215953E+00 -2.66808727E-01  8.78919111E-01  4.05284486E+00 -2.11766509E+00
  1.78712527E+00  3.12277091E+00  1.04536421E+00  2.33777257E+00  6.31272310E+00
  6.48693568E-01 -1.56425933E-01  6.10059763E+00  2.50401158E+00 -1.03317004E+00
  7.02585089E+00 -6.58910017E-01 -1.58369451E+00  2.04642820E+00 -4.31972613E-01
 -1.15003260E+00  4.28622301E-01 -1.00798753E+00 -4.99891217E-01 -3.32177553E+00
 -3.68156625E+00  1.28832006E-01 -2.90888164E+00 -1.94972864E+00  5.09014669E-01
 -4.90423396E+00 -3.39033722E-01 -4.02606226E-01 -6.69275394E+00 -8.79943192E-01
  4.89021367E-01 -5.11047490E+00 -5.62465484E-01 -2.45070464E+00 -4.24051101E+00
  2.36753596E+00  2.44129867E-01 -2.46270011E+00  2.91380469E+00 -6.45281076E-01
 -4.05510052E+00  2.60261221E+00  2.28461835E+00  7.71385110E+00  7.95831370E-01
  1.35323470E+00 -5.72293119E+00  3.63820109E+00 -4.23820291E-01
ONIOM Charges                              I   N=          16
           0           0           0           0           0           0
           0           0           0           0           0           0
           0           0           0           0
ONIOM Multiplicities                       I   N=          16
           1           0           0           0           0           0
           0           0           0           0           0           0
           0           0           0           0
Atom Layers                                I   N=          18
           0           0           0           0           0           0
           0           0           0           0           0           0
           0           0           0           0           0           0
Atom Modifiers                             I   N=          18
           0           0           0           0           0           0
           0           0           0           0           0           0
           0           0           0           0           0           0
Int Atom Modified Types                    I   N=          18
           0           0           0           0           0           0
           0           0           0           0           0           0
           0           0           0           0           0           0
Link Atoms                                 I   N=          18
           0           0           0           0           0           0
           0           0           0           0           0           0
           0           0           0           0           0           0
Atom Modified MM Charges                   R   N=          18
  0.00000000E+00  0.00000000E+00  0.00000000E+00  0.00000000E+00  0.00000000E+00
  0.00000000E+00  0.00000000E+00  0.00000000E+00  0.00000000E+00  0.00000000E+00
  0.00000000E+00  0.00000000E+00  0.00000000E+00  0.00000000E+00  0.00000000E+00
  0.00000000E+00  0.00000000E+00  0.00000000E+00
Link Distances                             R   N=          72
  0.00000000E+00  0.00000000E+00  0.00000000E+00  0.00000000E+00  0.00000000E+00
  0.00000000E+00  0.00000000E+00  0.00000000E+00  0.00000000E+00  0.00000000E+00
  0.00000000E+00  0.00000000E+00  0.00000000E+00  0.00000000E+00  0.00000000E+00
  0.00000000E+00  0.00000000E+00  0.00000000E+00  0.00000000E+00  0.00000000E+00
  0.00000000E+00  0.00000000E+00  0.00000000E+00  0.00000000E+00  0.00000000E+00
  0.00000000E+00  0.00000000E+00  0.00000000E+00  0.00000000E+00  0.00000000E+00
  0.00000000E+00  0.00000000E+00  0.00000000E+00  0.00000000E+00  0.00000000E+00
  0.00000000E+00  0.00000000E+00  0.00000000E+00  0.00000000E+00  0.00000000E+00
  0.00000000E+00  0.00000000E+00  0.00000000E+00  0.00000000E+00  0.00000000E+00
  0.00000000E+00  0.00000000E+00  0.00000000E+00  0.00000000E+00  0.00000000E+00
  0.00000000E+00  0.00000000E+00  0.00000000E+00  0.00000000E+00  0.00000000E+00
  0.00000000E+00  0.00000000E+00  0.00000000E+00  0.00000000E+00  0.00000000E+00
  0.00000000E+00  0.00000000E+00  0.00000000E+00  0.00000000E+00  0.00000000E+00
  0.00000000E+00  0.00000000E+00  0.00000000E+00  0.00000000E+00  0.00000000E+00
  0.00000000E+00  0.00000000E+00
MxBond                                     I                4
NBond                                      I   N=          18
           4           1           1           4           1           1
           2           1           1           2           4           1
           1           4           1           1           1           1
IBond                                      I   N=          72
           2           3           4           7           1           0
           0           0           1           0           0           0
           5           6          17           1           4           0
           0           0           4           0           0           0
           8           1           0           0           7           0
           0           0          10           0           0           0
          11           9           0           0          12          13
          14          10          11           0           0           0
          11           0           0           0          15          16
          18          11          14           0           0           0
          14           0           0           0           4           0
           0           0          14           0           0           0
RBond                                      R   N=          72
  1.00000000E+00  1.00000000E+00  1.00000000E+00  1.00000000E+00  1.00000000E+00
  0.00000000E+00  0.00000000E+00  0.00000000E+00  1.00000000E+00  0.00000000E+00
  0.00000000E+00  0.00000000E+00  1.00000000E+00  1.00000000E+00  1.00000000E+00
  1.00000000E+00  1.00000000E+00  0.00000000E+00  0.00000000E+00  0.00000000E+00
  1.00000000E+00  0.00000000E+00  0.00000000E+00  0.00000000E+00  1.00000000E+00
  1.00000000E+00  0.00000000E+00  0.00000000E+00  1.00000000E+00  0.00000000E+00
  0.00000000E+00  0.00000000E+00  1.00000000E+00  0.00000000E+00  0.00000000E+00
  0.00000000E+00  1.00000000E+00  1.00000000E+00  0.00000000E+00  0.00000000E+00
  1.00000000E+00  1.00000000E+00  1.00000000E+00  1.00000000E+00  1.00000000E+00
  0.00000000E+00  0.00000000E+00  0.00000000E+00  1.00000000E+00  0.00000000E+00
  0.00000000E+00  0.00000000E+00  1.00000000E+00  1.00000000E+00  1.00000000E+00
  1.00000000E+00  1.00000000E+00  0.00000000E+00  0.00000000E+00  0.00000000E+00
  1.00000000E+00  0.00000000E+00  0.00000000E+00  0.00000000E+00  1.00000000E+00
  0.00000000E+00  0.00000000E+00  0.00000000E+00  1.00000000E+00  0.00000000E+00
  0.00000000E+00  0.00000000E+00
Shell types                                I   N=         102
           0           0           0           0           0           1
           1           1          -2           0           0           0
           1           0           0           0           1           0
           0           0           0           0           1           1
           1          -2           0           0           0           1
           0           0           0           1           0           0
           0           0           0           1           1           1
          -2           0           0           0           1           0
           0           0           1           0           0           0
           0           0           1           1           1          -2
           0           0           0           0           0           1
           1           1          -2           0           0           0
           1           0           0           0           1           0
           0           0           0           0           1           1
           1          -2           0           0           0           1
           0           0           0           1           0           0
           0           1           0           0           0           1
Number of primitives per shell             I   N=         102
           6           2           1           1           1           4
           1           1           1           3           1           1
           1           3           1           1           1           6
           2           1           1           1           4           1
           1           1           3           1           1           1
           3           1           1           1           6           2
           1           1           1           4           1           1
           1           3           1           1           1           3
           1           1           1           6           2           1
           1           1           4           1           1           1
           6           2           1           1           1           4
           1           1           1           3           1           1
           1           3           1           1           1           6
           2           1           1           1           4           1
           1           1           3           1           1           1
           3           1           1           1           3           1
           1           1           3           1           1           1
Shell to atom map                          I   N=         102
           1           1           1           1           1           1
           1           1           1           2           2           2
           2           3           3           3           3           4
           4           4           4           4           4           4
           4           4           5           5           5           5
           6           6           6           6           7           7
           7           7           7           7           7           7
           7           8           8           8           8           9
           9           9           9          10          10          10
          10          10          10          10          10          10
          11          11          11          11          11          11
          11          11          11          12          12          12
          12          13          13          13          13          14
          14          14          14          14          14          14
          14          14          15          15          15          15
          16          16          16          16          17          17
          17          17          18          18          18          18
Primitive exponents                        R   N=         180
  1.35753497E+04  2.03523337E+03  4.63225624E+02  1.31200196E+02  4.28530159E+01
  1.55841858E+01  6.20671385E+00  2.57648965E+00  5.76963390E-01  2.29728310E-01
  9.51644400E-02  3.46972322E+01  7.95826228E+00  2.37808269E+00  8.14332080E-01
  2.88875470E-01  1.00568240E-01  8.00000000E-01  3.40613410E+01  5.12357460E+00
  1.16466260E+00  3.27230410E-01  1.03072410E-01  8.00000000E-01  3.40613410E+01
  5.12357460E+00  1.16466260E+00  3.27230410E-01  1.03072410E-01  8.00000000E-01
  1.35753497E+04  2.03523337E+03  4.63225624E+02  1.31200196E+02  4.28530159E+01
  1.55841858E+01  6.20671385E+00  2.57648965E+00  5.76963390E-01  2.29728310E-01
  9.51644400E-02  3.46972322E+01  7.95826228E+00  2.37808269E+00  8.14332080E-01
  2.88875470E-01  1.00568240E-01  8.00000000E-01  3.40613410E+01  5.12357460E+00
  1.16466260E+00  3.27230410E-01  1.03072410E-01  8.00000000E-01  3.40613410E+01
  5.12357460E+00  1.16466260E+00  3.27230410E-01  1.03072410E-01  8.00000000E-01
  2.70323826E+04  4.05238714E+03  9.22327227E+02  2.61240710E+02  8.53546413E+01
  3.10350352E+01  1.22608607E+01  4.99870760E+00  1.17031082E+00  4.64747410E-01
  1.85045360E-01  6.32749548E+01  1.46270494E+01  4.45012235E+00  1.52757996E+00
  5.29351180E-01  1.74784210E-01  1.20000000E+00  3.40613410E+01  5.12357460E+00
  1.16466260E+00  3.27230410E-01  1.03072410E-01  8.00000000E-01  3.40613410E+01
  5.12357460E+00  1.16466260E+00  3.27230410E-01  1.03072410E-01  8.00000000E-01
  2.70323826E+04  4.05238714E+03  9.22327227E+02  2.61240710E+02  8.53546413E+01
  3.10350352E+01  1.22608607E+01  4.99870760E+00  1.17031082E+00  4.64747410E-01
  1.85045360E-01  6.32749548E+01  1.46270494E+01  4.45012235E+00  1.52757996E+00
  5.29351180E-01  1.74784210E-01  1.20000000E+00  1.35753497E+04  2.03523337E+03
  4.63225624E+02  1.31200196E+02  4.28530159E+01  1.55841858E+01  6.20671385E+00
  2.57648965E+00  5.76963390E-01  2.29728310E-01  9.51644400E-02  3.46972322E+01
  7.95826228E+00  2.37808269E+00  8.14332080E-01  2.88875470E-01  1.00568240E-01
  8.00000000E-01  3.40613410E+01  5.12357460E+00  1.16466260E+00  3.27230410E-01
  1.03072410E-01  8.00000000E-01  3.40613410E+01  5.12357460E+00  1.16466260E+00
  3.27230410E-01  1.03072410E-01  8.00000000E-01  1.35753497E+04  2.03523337E+03
  4.63225624E+02  1.31200196E+02  4.28530159E+01  1.55841858E+01  6.20671385E+00
  2.57648965E+00  5.76963390E-01  2.29728310E-01  9.51644400E-02  3.46972322E+01
  7.95826228E+00  2.37808269E+00  8.14332080E-01  2.88875470E-01  1.00568240E-01
  8.00000000E-01  3.40613410E+01  5.12357460E+00  1.16466260E+00  3.27230410E-01
  1.03072410E-01  8.00000000E-01  3.40613410E+01  5.12357460E+00  1.16466260E+00
  3.27230410E-01  1.03072410E-01  8.00000000E-01  3.40613410E+01  5.12357460E+00
  1.16466260E+00  3.27230410E-01  1.03072410E-01  8.00000000E-01  3.40613410E+01
  5.12357460E+00  1.16466260E+00  3.27230410E-01  1.03072410E-01  8.00000000E-01
Contraction coefficients                   R   N=         180
  6.06460097E-04  4.69789846E-03  2.43324735E-02  9.73999560E-02  3.01955844E-01
  6.62336101E-01  6.55953080E-01  3.75856339E-01  1.00000000E+00  1.00000000E+00
  1.00000000E+00  1.13272290E-02  7.61696612E-02  3.01922515E-01  7.27850278E-01
  1.00000000E+00  1.00000000E+00  1.00000000E+00  2.54393072E-02  1.90085949E-01
  8.52441130E-01  1.00000000E+00  1.00000000E+00  1.00000000E+00  2.54393072E-02
  1.90085949E-01  8.52441130E-01  1.00000000E+00  1.00000000E+00  1.00000000E+00
  6.06460097E-04  4.69789846E-03  2.43324735E-02  9.73999560E-02  3.01955844E-01
  6.62336101E-01  6.55953080E-01  3.75856339E-01  1.00000000E+00  1.00000000E+00
  1.00000000E+00  1.13272290E-02  7.61696612E-02  3.01922515E-01  7.27850278E-01
  1.00000000E+00  1.00000000E+00  1.00000000E+00  2.54393072E-02  1.90085949E-01
  8.52441130E-01  1.00000000E+00  1.00000000E+00  1.00000000E+00  2.54393072E-02
  1.90085949E-01  8.52441130E-01  1.00000000E+00  1.00000000E+00  1.00000000E+00
  5.72265385E-04  4.43533331E-03  2.30201034E-02  9.28224938E-02  2.93784997E-01
  6.74016046E-01  6.38399375E-01  3.95345866E-01  1.00000000E+00  1.00000000E+00
  1.00000000E+00  1.20183316E-02  8.30054304E-02  3.19917439E-01  7.07155426E-01
  1.00000000E+00  1.00000000E+00  1.00000000E+00  2.54393072E-02  1.90085949E-01
  8.52441130E-01  1.00000000E+00  1.00000000E+00  1.00000000E+00  2.54393072E-02
  1.90085949E-01  8.52441130E-01  1.00000000E+00  1.00000000E+00  1.00000000E+00
  5.72265385E-04  4.43533331E-03  2.30201034E-02  9.28224938E-02  2.93784997E-01
  6.74016046E-01  6.38399375E-01  3.95345866E-01  1.00000000E+00  1.00000000E+00
  1.00000000E+00  1.20183316E-02  8.30054304E-02  3.19917439E-01  7.07155426E-01
  1.00000000E+00  1.00000000E+00  1.00000000E+00  6.06460097E-04  4.69789846E-03
  2.43324735E-02  9.73999560E-02  3.01955844E-01  6.62336101E-01  6.55953080E-01
  3.75856339E-01  1.00000000E+00  1.00000000E+00  1.00000000E+00  1.13272290E-02
  7.61696612E-02  3.01922515E-01  7.27850278E-01  1.00000000E+00  1.00000000E+00
  1.00000000E+00  2.54393072E-02  1.90085949E-01  8.52441130E-01  1.00000000E+00
  1.00000000E+00  1.00000000E+00  2.54393072E-02  1.90085949E-01  8.52441130E-01
  1.00000000E+00  1.00000000E+00  1.00000000E+00  6.06460097E-04  4.69789846E-03
  2.43324735E-02  9.73999560E-02  3.01955844E-01  6.62336101E-01  6.55953080E-01
  3.75856339E-01  1.00000000E+00  1.00000000E+00  1.00000000E+00  1.13272290E-02
  7.61696612E-02  3.01922515E-01  7.27850278E-01  1.00000000E+00  1.00000000E+00
  1.00000000E+00  2.54393072E-02  1.90085949E-01  8.52441130E-01  1.00000000E+00
  1.00000000E+00  1.00000000E+00  2.54393072E-02  1.90085949E-01  8.52441130E-01
  1.00000000E+00  1.00000000E+00  1.00000000E+00  2.54393072E-02  1.90085949E-01
  8.52441130E-01  1.00000000E+00  1.00000000E+00  1.00000000E+00  2.54393072E-02
  1.90085949E-01  8.52441130E-01  1.00000000E+00  1.00000000E+00  1.00000000E+00
Coordinates of each shell                  R   N=         306
  3.80215953E+00 -2.66808727E-01  8.78919111E-01  3.80215953E+00 -2.66808727E-01
  8.78919111E-01  3.80215953E+00 -2.66808727E-01  8.78919111E-01  3.80215953E+00
 -2.66808727E-01  8.78919111E-01  3.80215953E+00 -2.66808727E-01  8.78919111E-01
  3.80215953E+00 -2.66808727E-01  8.78919111E-01  3.80215953E+00 -2.66808727E-01
  8.78919111E-01  3.80215953E+00 -2.66808727E-01  8.78919111E-01  3.80215953E+00
 -2.66808727E-01  8.78919111E-01  4.05284486E+00 -2.11766509E+00  1.78712527E+00
  4.05284486E+00 -2.11766509E+00  1.78712527E+00  4.05284486E+00 -2.11766509E+00
  1.78712527E+00  4.05284486E+00 -2.11766509E+00  1.78712527E+00  3.12277091E+00
  1.04536421E+00  2.33777257E+00  3.12277091E+00  1.04536421E+00  2.33777257E+00
  3.12277091E+00  1.04536421E+00  2.33777257E+00  3.12277091E+00  1.04536421E+00
  2.33777257E+00  6.31272310E+00  6.48693568E-01 -1.56425933E-01  6.31272310E+00
  6.48693568E-01 -1.56425933E-01  6.31272310E+00  6.48693568E-01 -1.56425933E-01
  6.31272310E+00  6.48693568E-01 -1.56425933E-01  6.31272310E+00  6.48693568E-01
 -1.56425933E-01  6.31272310E+00  6.48693568E-01 -1.56425933E-01  6.31272310E+00
  6.48693568E-01 -1.56425933E-01  6.31272310E+00  6.48693568E-01 -1.56425933E-01
  6.31272310E+00  6.48693568E-01 -1.56425933E-01  6.10059763E+00  2.50401158E+00
 -1.03317004E+00  6.10059763E+00  2.50401158E+00 -1.03317004E+00  6.10059763E+00
  2.50401158E+00 -1.03317004E+00  6.10059763E+00  2.50401158E+00 -1.03317004E+00
  7.02585089E+00 -6.58910017E-01 -1.58369451E+00  7.02585089E+00 -6.58910017E-01
 -1.58369451E+00  7.02585089E+00 -6.58910017E-01 -1.58369451E+00  7.02585089E+00
 -6.58910017E-01 -1.58369451E+00  2.04642820E+00 -4.31972613E-01 -1.15003260E+00
  2.04642820E+00 -4.31972613E-01 -1.15003260E+00  2.04642820E+00 -4.31972613E-01
 -1.15003260E+00  2.04642820E+00 -4.31972613E-01 -1.15003260E+00  2.04642820E+00
 -4.31972613E-01 -1.15003260E+00  2.04642820E+00 -4.31972613E-01 -1.15003260E+00
  2.04642820E+00 -4.31972613E-01 -1.15003260E+00  2.04642820E+00 -4.31972613E-01
 -1.15003260E+00  2.04642820E+00 -4.31972613E-01 -1.15003260E+00  4.28622301E-01
 -1.00798753E+00 -4.99891217E-01  4.28622301E-01 -1.00798753E+00 -4.99891217E-01
  4.28622301E-01 -1.00798753E+00 -4.99891217E-01  4.28622301E-01 -1.00798753E+00
 -4.99891217E-01 -3.32177553E+00 -3.68156625E+00  1.28832006E-01 -3.32177553E+00
 -3.68156625E+00  1.28832006E-01 -3.32177553E+00 -3.68156625E+00  1.28832006E-01
 -3.32177553E+00 -3.68156625E+00  1.28832006E-01 -2.90888164E+00 -1.94972864E+00
  5.09014669E-01 -2.90888164E+00 -1.94972864E+00  5.09014669E-01 -2.90888164E+00
 -1.94972864E+00  5.09014669E-01 -2.90888164E+00 -1.94972864E+00  5.09014669E-01
 -2.90888164E+00 -1.94972864E+00  5.09014669E-01 -2.90888164E+00 -1.94972864E+00
  5.09014669E-01 -2.90888164E+00 -1.94972864E+00  5.09014669E-01 -2.90888164E+00
 -1.94972864E+00  5.09014669E-01 -2.90888164E+00 -1.94972864E+00  5.09014669E-01
 -4.90423396E+00 -3.39033722E-01 -4.02606226E-01 -4.90423396E+00 -3.39033722E-01
 -4.02606226E-01 -4.90423396E+00 -3.39033722E-01 -4.02606226E-01 -4.90423396E+00
 -3.39033722E-01 -4.02606226E-01 -4.90423396E+00 -3.39033722E-01 -4.02606226E-01
 -4.90423396E+00 -3.39033722E-01 -4.02606226E-01 -4.90423396E+00 -3.39033722E-01
 -4.02606226E-01 -4.90423396E+00 -3.39033722E-01 -4.02606226E-01 -4.90423396E+00
 -3.39033722E-01 -4.02606226E-01 -6.69275394E+00 -8.79943192E-01  4.89021367E-01
 -6.69275394E+00 -8.79943192E-01  4.89021367E-01 -6.69275394E+00 -8.79943192E-01
  4.89021367E-01 -6.69275394E+00 -8.79943192E-01  4.89021367E-01 -5.11047490E+00
 -5.62465484E-01 -2.45070464E+00 -5.11047490E+00 -5.62465484E-01 -2.45070464E+00
 -5.11047490E+00 -5.62465484E-01 -2.45070464E+00 -5.11047490E+00 -5.62465484E-01
 -2.45070464E+00 -4.24051101E+00  2.36753596E+00  2.44129867E-01 -4.24051101E+00
  2.36753596E+00  2.44129867E-01 -4.24051101E+00  2.36753596E+00  2.44129867E-01
 -4.24051101E+00  2.36753596E+00  2.44129867E-01 -4.24051101E+00  2.36753596E+00
  2.44129867E-01 -4.24051101E+00  2.36753596E+00  2.44129867E-01 -4.24051101E+00
  2.36753596E+00  2.44129867E-01 -4.24051101E+00  2.36753596E+00  2.44129867E-01
 -4.24051101E+00  2.36753596E+00  2.44129867E-01 -2.46270011E+00  2.91380469E+00
 -6.45281076E-01 -2.46270011E+00  2.91380469E+00 -6.45281076E-01 -2.46270011E+00
  2.91380469E+00 -6.45281076E-01 -2.46270011E+00  2.91380469E+00 -6.45281076E-01
 -4.05510052E+00  2.60261221E+00  2.28461835E+00 -4.05510052E+00  2.60261221E+00
  2.28461835E+00 -4.05510052E+00  2.60261221E+00  2.28461835E+00 -4.05510052E+00
  2.60261221E+00  2.28461835E+00  7.71385110E+00  7.95831370E-01  1.35323470E+00
  7.71385110E+00  7.95831370E-01  1.35323470E+00  7.71385110E+00  7.95831370E-01
  1.35323470E+00  7.71385110E+00  7.95831370E-01  1.35323470E+00 -5.72293119E+00
  3.63820109E+00 -4.23820291E-01 -5.72293119E+00  3.63820109E+00 -4.23820291E-01
 -5.72293119E+00  3.63820109E+00 -4.23820291E-01 -5.72293119E+00  3.63820109E+00
 -4.23820291E-01