Title Card Required                                                     
Freq      RB3LYP                                                      TZVP                
Number of atoms                            I                9
Charge                                     I                0
Multiplicity                               I                1
Number of electrons                        I               26
Number of alpha electrons                  I               13
Number of beta electrons                   I               13
Number of basis functions                  I               93
Number of independant functions            I               93
Number of point charges in /Mol/           I                0
Number of translation vectors              I                0
Info1-9                                    I   N=           9
          28          28        1002           0           0         100
           6          18        -502
Num ILSW                                   I              100
ILSW                                       I   N=         100
           0           0           0           0           2           0
           0           0           0           0         402      200000
           5           0           0           0           0           0
           0      800000           1           0           1           0
           1           0           0           0     1000000           0
           0           0      100000           0          -1           0
           0           0           0           0           0           0
           0           0           0           1           0           0
           0           0           1      720000      810000           0
           0           0           0           0           0           0
           0           0           0           0           0           0
           0           0           0           0           0           0
           0           0           0           0           0           0
           0           0           0           0           0           0
           0           0           0           0           0           0
           0           0           0           0           0           0
           0           0           0           0
Number of contracted shells                I               51
Highest angular momentum                   I                2
Largest degree of contraction              I                6
Number of primitive shells                 I               90
Pure/Cartesian d shells                    I                0
Pure/Cartesian f shells                    I                0
Virial Ratio                               R      2.004914876111182E+00
SCF Energy                                 R     -1.551040780028563E+02
Total Energy                               R     -1.551040780028563E+02
RMS Force                                  R      2.052518709043983E-07
RMS Density                                R      1.966652560847948E-09
Atomic numbers                             I   N=           9
           6           1           1           6           1           1
           1           8           1
Nuclear charges                            R   N=           9
  6.00000000E+00  1.00000000E+00  1.00000000E+00  6.00000000E+00  1.00000000E+00
  1.00000000E+00  1.00000000E+00  8.00000000E+00  1.00000000E+00
Current cartesian coordinates              R   N=          27
 -1.53007277E-01  1.03569490E+00  0.00000000E+00 -2.55061599E-01  2.25552827E+00
  1.67486621E+00 -2.55061599E-01  2.25552827E+00 -1.67486611E+00  2.31008971E+00
 -4.22463816E-01  0.00000000E+00  2.44163510E+00 -1.62294450E+00 -1.67159688E+00
  3.91542187E+00  8.75119969E-01  0.00000000E+00  2.44163510E+00 -1.62294450E+00
  1.67159699E+00 -2.18383975E+00 -7.47554049E-01  0.00000000E+00 -3.76034542E+00
  1.60758371E-01  0.00000000E+00
Int Atom Types                             I   N=           9
           0           0           0           0           0           0
           0           0           0
Force Field                                I                0
MM charges                                 R   N=           9
  0.00000000E+00  0.00000000E+00  0.00000000E+00  0.00000000E+00  0.00000000E+00
  0.00000000E+00  0.00000000E+00  0.00000000E+00  0.00000000E+00
Integer atomic weights                     I   N=           9
          12           1           1          12           1           1
           1          16           1
Real atomic weights                        R   N=           9
  1.20000000E+01  1.00782504E+00  1.00782504E+00  1.20000000E+01  1.00782504E+00
  1.00782504E+00  1.00782504E+00  1.59949146E+01  1.00782504E+00
Atom residue info                          I   N=           9
           0           0           0           0           0           0
           0           0           0
Atom fragment info                         I   N=           9
           0           0           0           0           0           0
           0           0           0
Atom residue num                           I   N=           9
           0           0           0           0           0           0
           0           0           0
Nuclear spins                              I   N=           9
           0           1           1           0           1           1
           1           0           1
Nuclear ZEff                               R   N=           9
 -3.60000000E+00 -1.00000000E+00 -1.00000000E+00 -3.60000000E+00 -1.00000000E+00
 -1.00000000E+00 -1.00000000E+00 -5.60000000E+00 -1.00000000E+00
Nuclear QMom                               R   N=           9
  0.00000000E+00  0.00000000E+00  0.00000000E+00  0.00000000E+00  0.00000000E+00
  0.00000000E+00  0.00000000E+00  0.00000000E+00  0.00000000E+00
Nuclear GFac                               R   N=           9
  0.00000000E+00  2.79284600E+00  2.79284600E+00  0.00000000E+00  2.79284600E+00
  2.79284600E+00  2.79284600E+00  0.00000000E+00  2.79284600E+00
MicOpt                                     I   N=           9
          -1          -1          -1          -1          -1          -1
          -1          -1          -1
Constraint Structure                       R   N=          27
 -1.53007277E-01  1.03569490E+00  0.00000000E+00 -2.55061599E-01  2.25552827E+00
  1.67486621E+00 -2.55061599E-01  2.25552827E+00 -1.67486611E+00  2.31008971E+00
 -4.22463816E-01  0.00000000E+00  2.44163510E+00 -1.62294450E+00 -1.67159688E+00
  3.91542187E+00  8.75119969E-01  0.00000000E+00  2.44163510E+00 -1.62294450E+00
  1.67159699E+00 -2.18383975E+00 -7.47554049E-01  0.00000000E+00 -3.76034542E+00
  1.60758371E-01  0.00000000E+00
ONIOM Charges                              I   N=          16
           0           0           0           0           0           0
           0           0           0           0           0           0
           0           0           0           0
ONIOM Multiplicities                       I   N=          16
           1           0           0           0           0           0
           0           0           0           0           0           0
           0           0           0           0
Atom Layers                                I   N=           9
           0           0           0           0           0           0
           0           0           0
Atom Modifiers                             I   N=           9
           0           0           0           0           0           0
           0           0           0
Int Atom Modified Types                    I   N=           9
           0           0           0           0           0           0
           0           0           0
Link Atoms                                 I   N=           9
           0           0           0           0           0           0
           0           0           0
Atom Modified MM Charges                   R   N=           9
  0.00000000E+00  0.00000000E+00  0.00000000E+00  0.00000000E+00  0.00000000E+00
  0.00000000E+00  0.00000000E+00  0.00000000E+00  0.00000000E+00
Link Distances                             R   N=          36
  0.00000000E+00  0.00000000E+00  0.00000000E+00  0.00000000E+00  0.00000000E+00
  0.00000000E+00  0.00000000E+00  0.00000000E+00  0.00000000E+00  0.00000000E+00
  0.00000000E+00  0.00000000E+00  0.00000000E+00  0.00000000E+00  0.00000000E+00
  0.00000000E+00  0.00000000E+00  0.00000000E+00  0.00000000E+00  0.00000000E+00
  0.00000000E+00  0.00000000E+00  0.00000000E+00  0.00000000E+00  0.00000000E+00
  0.00000000E+00  0.00000000E+00  0.00000000E+00  0.00000000E+00  0.00000000E+00
  0.00000000E+00  0.00000000E+00  0.00000000E+00  0.00000000E+00  0.00000000E+00
  0.00000000E+00
MxBond                                     I                4
NBond                                      I   N=           9
           4           1           1           4           1           1
           1           2           1
IBond                                      I   N=          36
           2           3           4           8           1           0
           0           0           1           0           0           0
           5           6           7           1           4           0
           0           0           4           0           0           0
           4           0           0           0           9           1
           0           0           8           0           0           0
RBond                                      R   N=          36
  1.00000000E+00  1.00000000E+00  1.00000000E+00  1.00000000E+00  1.00000000E+00
  0.00000000E+00  0.00000000E+00  0.00000000E+00  1.00000000E+00  0.00000000E+00
  0.00000000E+00  0.00000000E+00  1.00000000E+00  1.00000000E+00  1.00000000E+00
  1.00000000E+00  1.00000000E+00  0.00000000E+00  0.00000000E+00  0.00000000E+00
  1.00000000E+00  0.00000000E+00  0.00000000E+00  0.00000000E+00  1.00000000E+00
  0.00000000E+00  0.00000000E+00  0.00000000E+00  1.00000000E+00  1.00000000E+00
  0.00000000E+00  0.00000000E+00  1.00000000E+00  0.00000000E+00  0.00000000E+00
  0.00000000E+00
Shell types                                I   N=          51
           0           0           0           0           0           1
           1           1          -2           0           0           0
           1           0           0           0           1           0
           0           0           0           0           1           1
           1          -2           0           0           0           1
           0           0           0           1           0           0
           0           1           0           0           0           0
           0           1           1           1          -2           0
           0           0           1
Number of primitives per shell             I   N=          51
           6           2           1           1           1           4
           1           1           1           3           1           1
           1           3           1           1           1           6
           2           1           1           1           4           1
           1           1           3           1           1           1
           3           1           1           1           3           1
           1           1           6           2           1           1
           1           4           1           1           1           3
           1           1           1
Shell to atom map                          I   N=          51
           1           1           1           1           1           1
           1           1           1           2           2           2
           2           3           3           3           3           4
           4           4           4           4           4           4
           4           4           5           5           5           5
           6           6           6           6           7           7
           7           7           8           8           8           8
           8           8           8           8           8           9
           9           9           9
Primitive exponents                        R   N=          90
  1.35753497E+04  2.03523337E+03  4.63225624E+02  1.31200196E+02  4.28530159E+01
  1.55841858E+01  6.20671385E+00  2.57648965E+00  5.76963390E-01  2.29728310E-01
  9.51644400E-02  3.46972322E+01  7.95826228E+00  2.37808269E+00  8.14332080E-01
  2.88875470E-01  1.00568240E-01  8.00000000E-01  3.40613410E+01  5.12357460E+00
  1.16466260E+00  3.27230410E-01  1.03072410E-01  8.00000000E-01  3.40613410E+01
  5.12357460E+00  1.16466260E+00  3.27230410E-01  1.03072410E-01  8.00000000E-01
  1.35753497E+04  2.03523337E+03  4.63225624E+02  1.31200196E+02  4.28530159E+01
  1.55841858E+01  6.20671385E+00  2.57648965E+00  5.76963390E-01  2.29728310E-01
  9.51644400E-02  3.46972322E+01  7.95826228E+00  2.37808269E+00  8.14332080E-01
  2.88875470E-01  1.00568240E-01  8.00000000E-01  3.40613410E+01  5.12357460E+00
  1.16466260E+00  3.27230410E-01  1.03072410E-01  8.00000000E-01  3.40613410E+01
  5.12357460E+00  1.16466260E+00  3.27230410E-01  1.03072410E-01  8.00000000E-01
  3.40613410E+01  5.12357460E+00  1.16466260E+00  3.27230410E-01  1.03072410E-01
  8.00000000E-01  2.70323826E+04  4.05238714E+03  9.22327227E+02  2.61240710E+02
  8.53546413E+01  3.10350352E+01  1.22608607E+01  4.99870760E+00  1.17031082E+00
  4.64747410E-01  1.85045360E-01  6.32749548E+01  1.46270494E+01  4.45012235E+00
  1.52757996E+00  5.29351180E-01  1.74784210E-01  1.20000000E+00  3.40613410E+01
  5.12357460E+00  1.16466260E+00  3.27230410E-01  1.03072410E-01  8.00000000E-01
Contraction coefficients                   R   N=          90
  6.06460097E-04  4.69789846E-03  2.43324735E-02  9.73999560E-02  3.01955844E-01
  6.62336101E-01  6.55953080E-01  3.75856339E-01  1.00000000E+00  1.00000000E+00
  1.00000000E+00  1.13272290E-02  7.61696612E-02  3.01922515E-01  7.27850278E-01
  1.00000000E+00  1.00000000E+00  1.00000000E+00  2.54393072E-02  1.90085949E-01
  8.52441130E-01  1.00000000E+00  1.00000000E+00  1.00000000E+00  2.54393072E-02
  1.90085949E-01  8.52441130E-01  1.00000000E+00  1.00000000E+00  1.00000000E+00
  6.06460097E-04  4.69789846E-03  2.43324735E-02  9.73999560E-02  3.01955844E-01
  6.62336101E-01  6.55953080E-01  3.75856339E-01  1.00000000E+00  1.00000000E+00
  1.00000000E+00  1.13272290E-02  7.61696612E-02  3.01922515E-01  7.27850278E-01
  1.00000000E+00  1.00000000E+00  1.00000000E+00  2.54393072E-02  1.90085949E-01
  8.52441130E-01  1.00000000E+00  1.00000000E+00  1.00000000E+00  2.54393072E-02
  1.90085949E-01  8.52441130E-01  1.00000000E+00  1.00000000E+00  1.00000000E+00
  2.54393072E-02  1.90085949E-01  8.52441130E-01  1.00000000E+00  1.00000000E+00
  1.00000000E+00  5.72265385E-04  4.43533331E-03  2.30201034E-02  9.28224938E-02
  2.93784997E-01  6.74016046E-01  6.38399375E-01  3.95345866E-01  1.00000000E+00
  1.00000000E+00  1.00000000E+00  1.20183316E-02  8.30054304E-02  3.19917439E-01
  7.07155426E-01  1.00000000E+00  1.00000000E+00  1.00000000E+00  2.54393072E-02
  1.90085949E-01  8.52441130E-01  1.00000000E+00  1.00000000E+00  1.00000000E+00
Coordinates of each shell                  R   N=         153
 -1.53007277E-01  1.03569490E+00  0.00000000E+00 -1.53007277E-01  1.03569490E+00
  0.00000000E+00 -1.53007277E-01  1.03569490E+00  0.00000000E+00 -1.53007277E-01
  1.03569490E+00  0.00000000E+00 -1.53007277E-01  1.03569490E+00  0.00000000E+00
 -1.53007277E-01  1.03569490E+00  0.00000000E+00 -1.53007277E-01  1.03569490E+00
  0.00000000E+00 -1.53007277E-01  1.03569490E+00  0.00000000E+00 -1.53007277E-01
  1.03569490E+00  0.00000000E+00 -2.55061599E-01  2.25552827E+00  1.67486621E+00
 -2.55061599E-01  2.25552827E+00  1.67486621E+00 -2.55061599E-01  2.25552827E+00
  1.67486621E+00 -2.55061599E-01  2.25552827E+00  1.67486621E+00 -2.55061599E-01
  2.25552827E+00 -1.67486611E+00 -2.55061599E-01  2.25552827E+00 -1.67486611E+00
 -2.55061599E-01  2.25552827E+00 -1.67486611E+00 -2.55061599E-01  2.25552827E+00
 -1.67486611E+00  2.31008971E+00 -4.22463816E-01  0.00000000E+00  2.31008971E+00
 -4.22463816E-01  0.00000000E+00  2.31008971E+00 -4.22463816E-01  0.00000000E+00
  2.31008971E+00 -4.22463816E-01  0.00000000E+00  2.31008971E+00 -4.22463816E-01
  0.00000000E+00  2.31008971E+00 -4.22463816E-01  0.00000000E+00  2.31008971E+00
 -4.22463816E-01  0.00000000E+00  2.31008971E+00 -4.22463816E-01  0.00000000E+00
  2.31008971E+00 -4.22463816E-01  0.00000000E+00  2.44163510E+00 -1.62294450E+00
 -1.67159688E+00  2.44163510E+00 -1.62294450E+00 -1.67159688E+00  2.44163510E+00
 -1.62294450E+00 -1.67159688E+00  2.44163510E+00 -1.62294450E+00 -1.67159688E+00
  3.91542187E+00  8.75119969E-01  0.00000000E+00  3.91542187E+00  8.75119969E-01
  0.00000000E+00  3.91542187E+00  8.75119969E-01  0.00000000E+00  3.91542187E+00
  8.75119969E-01  0.00000000E+00  2.44163510E+00 -1.62294450E+00  1.67159699E+00
  2.44163510E+00 -1.62294450E+00  1.67159699E+00  2.44163510E+00 -1.62294450E+00
  1.67159699E+00  2.44163510E+00 -1.62294450E+00  1.67159699E+00 -2.18383975E+00
 -7.47554049E-01  0.00000000E+00 -2.18383975E+00 -7.47554049E-01  0.00000000E+00
 -2.18383975E+00 -7.47554049E-01  0.00000000E+00 -2.18383975E+00 -7.47554049E-01
  0.00000000E+00 -2.18383975E+00 -7.47554049E-01  0.00000000E+00 -2.18383975E+00
 -7.47554049E-01  0.00000000E+00 -2.18383975E+00 -7.47554049E-01  0.00000000E+00
 -2.18383975E+00 -7.47554049E-01  0.00000000E+00 -2.18383975E+00 -7.47554049E-01
  0.00000000E+00 -3.76034542E+00  1.60758371E-01  0.00000000E+00 -3.76034542E+00
  1.60758371E-01  0.00000000E+00 -3.76034542E+00  1.60758371E-01  0.00000000E+00
 -3.76034542E+00  1.60758371E-01  0.00000000E+00
Alpha Orbital Energies                     R   N=          93
 -1.91233569E+01 -1.02192054E+01 -1.01605210E+01 -1.02049493E+00 -7.52936954E-01
 -6.14342156E-01 -5.20976137E-01 -4.69098095E-01 -4.06194518E-01 -3.86884280E-01
 -3.69007557E-01 -3.37004066E-01 -2.77436944E-01  2.58238929E-02  5.67101575E-02
  8.99171467E-02  1.00251362E-01  1.13625855E-01  1.35322163E-01  1.49818617E-01
  1.73813948E-01  2.04243056E-01  2.32397321E-01  2.68497883E-01  2.92338935E-01
  3.18447558E-01  3.69373408E-01  3.97987680E-01  4.18978826E-01  4.31229955E-01
  4.49208427E-01  4.75126807E-01  4.92129181E-01  4.96530236E-01  5.31605673E-01
  5.50293455E-01  5.72766466E-01  6.71132318E-01  8.30845548E-01  1.14644616E+00
  1.17044167E+00  1.25648632E+00  1.26051273E+00  1.29288559E+00  1.31902718E+00
  1.34293757E+00  1.35237469E+00  1.40797558E+00  1.45146968E+00  1.45688161E+00
  1.50957876E+00  1.54076671E+00  1.62441892E+00  1.65814017E+00  1.72142153E+00
  1.77087619E+00  1.79285616E+00  1.79982717E+00  1.85708306E+00  1.86755541E+00
  1.93757496E+00  2.05861217E+00  2.10412201E+00  2.17864069E+00  2.21231711E+00
  2.29104378E+00  2.29390584E+00  2.35351753E+00  2.40047514E+00  2.49524562E+00
  2.54797365E+00  2.58923474E+00  2.59405650E+00  2.60414301E+00  2.63749120E+00
  2.69291146E+00  2.71879617E+00  2.88757680E+00  2.93335540E+00  2.94085075E+00
  3.05380521E+00  3.07368017E+00  3.16714221E+00  3.21683584E+00  3.31489095E+00
  3.32235102E+00  3.37095715E+00  3.37645432E+00  3.95200110E+00  4.30696395E+00
  2.18592948E+01  2.20216506E+01  4.34268758E+01
Alpha MO coefficients                      R   N=        8649
  1.15637865E-05 -7.00977042E-05 -6.57592225E-04  2.58867551E-03 -1.43562931E-02
 -2.18969965E-04 -9.41774727E-05 -4.98266985E-12 -1.83429414E-04 -7.70837086E-04
  1.59046550E-11  4.51774965E-04  2.37945977E-03 -4.48046150E-11 -3.31259566E-04
  4.22208746E-12  3.14107742E-12  1.10155101E-04  4.68409795E-04  1.07580497E-05
  2.70988774E-04  1.96166635E-03  1.47890015E-04  1.22131137E-04 -1.46921473E-05
  1.07580596E-05  2.70988754E-04  1.96166642E-03  1.47890017E-04  1.22131140E-04
  1.46921508E-05  2.57153060E-06 -1.28738641E-05  2.68371048E-04 -6.71214434E-04
  5.28847799E-03 -6.84872104E-05 -4.96519930E-05  1.22274719E-12  5.62988419E-04
  4.47648138E-04  1.02382272E-11 -1.53610902E-03  1.08106175E-03  7.36638376E-13
  6.92166958E-06 -2.38446283E-12 -3.76922120E-12 -1.07675624E-04  4.15335974E-06
  1.48927288E-05  2.49967562E-04  1.55663973E-04 -1.30612216E-04  1.26212571E-05
  6.66967880E-05  2.57867078E-07 -3.53233567E-04 -6.77469292E-04  9.31532992E-05
  4.68606350E-05  1.19703235E-12  1.48927244E-05  2.49967545E-04  1.55663980E-04
 -1.30612218E-04  1.26212587E-05 -6.66967880E-05  4.35073316E-01  6.39682282E-01
  3.45880564E-02 -2.33824926E-02  1.54726093E-02 -5.38894250E-05  1.71095429E-03
 -5.82481715E-12 -4.91957100E-04 -2.06476580E-03  5.98106972E-13  1.51914637E-03
  2.46532940E-03  1.36229814E-11  1.57970370E-04  6.06433716E-13  7.54290742E-13
 -7.90802827E-05 -4.45889895E-05  6.13346275E-04 -3.17257115E-04 -6.59499183E-04
  3.08376272E-04 -1.64096135E-04 -3.75991538E-13  4.66851193E-01  6.08849247E-01
  3.76532082E-02 -3.03816580E-02  2.91123963E-02 -4.52558475E-04 -4.99561502E-04
 -2.87305522E-11 -6.86456258E-04  1.85571669E-03 -2.48218267E-10  3.12283382E-03
  1.80301772E-04  1.04007372E-10  4.12397451E-04  1.14169714E-11 -1.43925540E-10
 -3.02677593E-04  1.42392208E-04 -1.31368159E-04  8.26386864E-04 -5.86380765E-03
 -1.30512615E-05  4.36678001E-04  7.97059107E-04 -1.31368284E-04  8.26386600E-04
 -5.86380776E-03 -1.30512734E-05  4.36678176E-04 -7.97059280E-04  9.07127866E-04
  1.25810340E-03 -7.19352770E-04  4.83682099E-03 -8.95858395E-03  3.67639402E-05
  4.63573889E-05 -1.29065152E-11 -1.58022039E-03  4.40588315E-04  2.05581490E-11
  3.57868847E-03 -1.64550518E-03 -1.20271266E-11  1.81733023E-04 -9.43861057E-13
  1.30208638E-11 -9.00266323E-05  2.14971380E-04 -8.60322784E-05 -6.91472922E-04
 -1.58948284E-04  1.17264258E-04 -1.32525621E-04 -1.69190029E-04 -3.13629727E-05
 -5.21329181E-04 -8.66441520E-04  2.02851907E-04 -6.94324676E-06 -7.47972181E-12
 -8.60322691E-05 -6.91472910E-04 -1.58948262E-04  1.17264247E-04 -1.32525623E-04
  1.69190039E-04 -1.78598416E-05 -6.25524875E-05  3.33989037E-04  2.66728109E-04
  1.82490296E-04  1.48197550E-04  2.16490587E-04 -3.64542011E-12  2.57235501E-04
 -3.55337673E-04  1.63746168E-11  5.83025818E-04  1.27909607E-03 -8.22829615E-12
  1.89825746E-04  2.06236604E-12  4.81962935E-12  3.07483602E-06 -3.07052328E-04
 -7.62670087E-05  4.65252742E-05 -9.58076691E-04  1.93891513E-04 -8.53554580E-05
 -2.74972147E-12 -9.65599408E-04 -1.18290674E-03 -9.44414074E-04  5.26251805E-03
 -1.33513546E-02  7.38057661E-05  2.01838207E-05 -1.15684538E-11  1.45369240E-03
 -8.20241527E-04  2.14352014E-11 -4.32701031E-03  2.51906902E-03  6.72004504E-11
  1.42957624E-04  1.86876485E-12 -7.91012917E-12 -1.16891198E-04  1.69588633E-04
 -5.39127874E-05 -7.10154277E-04 -4.03013264E-05 -1.34725610E-04  1.86118648E-04
  1.27383139E-04 -5.39127989E-05 -7.10154258E-04 -4.03012556E-05 -1.34725616E-04
  1.86118640E-04 -1.27383127E-04  4.66754382E-01  6.08681745E-01  3.86339773E-02
 -3.16207424E-02  4.22621609E-02 -9.50408371E-05  1.36300508E-04 -3.64680232E-11
  2.13509791E-03 -1.33068500E-03 -2.86391269E-10 -2.98231298E-03  1.15752745E-03
  8.05847906E-11  3.01782598E-04 -2.03333199E-11  1.54926558E-10 -2.50750841E-04
  4.62125957E-04 -2.36459755E-05  2.40658570E-04 -7.51338301E-03 -5.29370965E-05
 -5.18968113E-04 -8.84552678E-04 -4.52468436E-05  4.06359788E-04 -6.95878385E-03
  6.84292324E-04  7.53346502E-04  1.38805965E-11 -2.36458421E-05  2.40658880E-04
 -7.51338279E-03 -5.29371078E-05 -5.18967921E-04  8.84552485E-04  1.19304624E-06
 -4.00954411E-06  1.26679201E-04 -4.05895154E-04 -2.71840252E-04 -2.53600849E-06
  3.90804078E-05  6.58213719E-14 -1.95111976E-04 -2.20703465E-04  1.37701450E-12
 -6.02088173E-04  2.52439296E-04 -2.94453978E-11  5.92236836E-06 -2.48517065E-12
 -2.46104113E-12 -2.47665692E-05 -4.35875232E-05  2.85748244E-05 -1.95560111E-04
 -2.58668769E-04  3.96135594E-05 -2.56188790E-05  2.83711880E-12 -3.59179910E-02
 -7.56066975E-02  1.25929332E-01  8.54375227E-02  3.94741237E-02 -5.77575789E-02
 -4.82358821E-02 -5.09390080E-10 -3.85987018E-02 -2.94323453E-02  3.60491214E-11
 -2.12114646E-03  1.63990743E-03 -4.37597926E-10 -8.95385433E-03  4.17745537E-11
  2.05035887E-11  3.85536642E-03  1.22116840E-02  1.55075609E-02  1.61076833E-02
 -6.67703723E-03 -3.68570129E-04 -3.74262765E-03 -3.93612865E-03  1.55075624E-02
  1.61076844E-02 -6.67703824E-03 -3.68570177E-04 -3.74262796E-03  3.93612866E-03
 -7.62200127E-03 -1.58728850E-02  2.22408253E-02  2.88695865E-02 -1.50618122E-02
 -1.46549663E-02  3.14092423E-03 -1.51988454E-10 -1.29487430E-02  5.21673106E-03
 -4.52470106E-12  4.40780334E-03 -1.29399894E-03  6.42522985E-11 -2.09871643E-03
  3.30938423E-11 -9.74502306E-12  2.53708246E-03 -1.92530968E-03  4.28165582E-03
  4.07959689E-03  2.63047557E-03 -2.15747864E-04  4.66608513E-04  1.02703933E-03
  2.33310516E-03  2.57421134E-03  1.04005546E-03 -6.83862170E-04 -4.10315211E-04
 -9.83864497E-12  4.28165543E-03  4.07959664E-03  2.63047545E-03 -2.15747862E-04
  4.66608441E-04 -1.02703929E-03 -9.36578798E-02 -2.19979984E-01  3.17832158E-01
  4.31622286E-01  1.25293249E-01 -6.66502937E-03  7.95859578E-02 -1.38912017E-10
  4.52449406E-03  7.09210652E-02 -1.87712811E-10 -4.18915806E-03 -9.58085656E-04
 -2.68514474E-11 -1.13406537E-02 -2.35384088E-11 -3.17284496E-11  2.43364778E-03
  2.18849576E-03  9.01174016E-02  7.78177206E-02  3.57698242E-03  1.81928733E-02
 -7.47581917E-03 -1.33592327E-11 -6.08889397E-02 -1.29234299E-01  2.12865223E-01
  2.02794557E-01  3.36087918E-02  7.69021257E-02 -1.26009034E-02 -3.10686735E-09
  5.19138459E-02 -1.75205041E-02 -1.11384261E-09 -9.18029593E-04  9.48815377E-03
 -7.84293933E-10 -3.42231860E-03 -9.34006620E-11 -2.41180043E-10  1.67484557E-03
 -9.70489485E-03  4.77637045E-02  5.55820459E-02  2.11270988E-03  2.36250005E-03
 -5.91912444E-03 -8.20123607E-03  4.77637095E-02  5.55820498E-02  2.11270921E-03
  2.36250020E-03 -5.91912499E-03  8.20123615E-03 -7.48521932E-02 -1.58245462E-01
  2.55417998E-01  2.26381532E-01  7.33100649E-02 -3.48803474E-02  2.64713700E-02
 -3.20873620E-09 -2.92108904E-02  2.28018816E-02 -8.35936022E-10  2.39969195E-03
  3.04420745E-03 -7.58522302E-10 -4.49419047E-03  7.86867186E-11  2.30618030E-10
  2.91567711E-03 -6.48088438E-03  5.68053303E-02  6.63327473E-02  2.24134763E-03
 -1.27919830E-03  7.69101216E-03  9.96007566E-03  5.99582792E-02  6.85713944E-02
 -2.55337933E-04 -1.04756862E-02 -7.20356029E-03 -1.11566569E-10  5.68053247E-02
  6.63327429E-02  2.24134839E-03 -1.27919820E-03  7.69101147E-03 -9.96007557E-03
  2.40484661E-02  5.70458428E-02 -8.81863975E-02 -1.09229064E-01 -6.13976774E-02
  9.22230351E-02 -1.48822946E-03 -3.24006583E-10  7.09236999E-02 -7.85355494E-04
 -3.17159639E-10  1.32903977E-02 -2.75666279E-04  8.18103854E-11  5.79843246E-04
 -5.08615144E-11 -4.83814339E-11 -4.73916162E-04  8.12156312E-03 -5.50758920E-02
 -5.71756274E-02 -1.25667406E-02 -7.31442528E-03  6.07000874E-03 -1.08124694E-11
 -6.20945432E-02 -1.32685589E-01  2.27492317E-01  2.15376728E-01  1.07672056E-01
 -5.94620371E-02  6.52015239E-02 -6.78999091E-09 -5.00050464E-02  4.06867976E-02
 -2.79621037E-09 -7.38763464E-03  2.16646214E-02 -1.58784521E-09  4.57339517E-03
  2.73949676E-10 -7.82122184E-10 -4.13030281E-03  6.44028461E-03  7.76850981E-02
  9.41203890E-02  7.16247529E-03 -3.59944872E-04 -6.13015739E-03 -1.14581897E-02
  7.76851077E-02  9.41203982E-02  7.16247581E-03 -3.59944861E-04 -6.13015828E-03
  1.14581899E-02  5.79989413E-02  1.23285733E-01 -2.05976093E-01 -1.81955305E-01
 -1.01434259E-01 -7.96028333E-02  5.20614466E-02  4.76101843E-09 -5.33808144E-02
  3.58443516E-02  1.41258493E-09 -1.30401885E-02  4.43616985E-03  1.35998343E-09
 -4.86088209E-03  2.22128771E-10 -6.56118957E-10  3.19364508E-03 -7.50873340E-03
 -7.14559237E-02 -8.78924539E-02 -9.56893295E-03 -1.49453507E-03 -6.31330620E-03
 -1.06385099E-02 -6.97149926E-02 -8.77741236E-02 -8.60283047E-03  7.83459221E-03
  9.64451863E-03  1.56555466E-10 -7.14559161E-02 -8.78924470E-02 -9.56893282E-03
 -1.49453504E-03 -6.31330544E-03  1.06385098E-02  1.75738778E-02  4.18954752E-02
 -6.76914132E-02 -7.38554286E-02 -6.87197363E-02  1.32678331E-01  5.51350194E-02
 -1.12675132E-09  1.02106957E-01  4.66331630E-02 -1.01593571E-09  2.77742204E-02
  1.52423204E-02 -2.07616233E-10 -1.28652538E-03 -9.68201467E-11 -1.56742169E-10
 -5.90646090E-03  1.21158929E-02 -5.88975264E-02 -7.01211165E-02 -2.32230857E-02
 -5.76656825E-03  1.01194089E-02 -6.05899660E-11  9.93045895E-03  2.08133305E-02
 -3.00188135E-02 -3.33170953E-02  5.87348158E-03 -6.31547816E-02 -2.10810357E-01
  1.41052707E-08 -3.88868397E-02 -1.65431174E-01  9.30159309E-09  4.26846173E-03
 -5.05869721E-02  3.18279229E-09 -1.34702663E-02 -2.08757732E-10  1.22609203E-09
 -8.46711621E-03  1.30996455E-02 -6.60499708E-02 -7.92624430E-02 -2.72901220E-02
 -2.07049642E-03  6.98933029E-04  6.95172736E-03 -6.60499853E-02 -7.92624576E-02
 -2.72901275E-02 -2.07049669E-03  6.98933872E-04 -6.95172789E-03  2.96439148E-03
  6.32194191E-03 -1.00919012E-02 -1.79760851E-02 -4.06452590E-02 -6.26974668E-02
 -7.26314870E-02  2.40015622E-09 -4.27448798E-02 -6.30962032E-02  2.08166301E-09
 -1.12802627E-02 -2.33554353E-02  2.42902909E-10  2.34086040E-03 -2.98787560E-10
  3.18500673E-10  5.35804772E-03  4.14847458E-04  1.41669783E-02  1.49794778E-02
  9.52051017E-03 -2.46226921E-03 -5.80778041E-04  1.09105998E-03 -4.66675057E-02
 -5.09876130E-02 -1.24249272E-02  3.95510749E-03  1.36028461E-03  1.33810332E-10
  1.41669791E-02  1.49794795E-02  9.52051020E-03 -2.46226917E-03 -5.80777816E-04
 -1.09106006E-03 -1.49256036E-02 -3.54131217E-02  5.03752195E-02  9.67992901E-02
  5.23013818E-02  3.04681845E-01 -5.67197045E-02  4.48867751E-09  2.38555930E-01
 -3.96430872E-02  3.75270939E-09  8.43609120E-02 -2.90361463E-02  1.43573341E-09
  1.48358857E-03  1.65314077E-10  3.92747384E-10  2.83132446E-03  1.91960178E-02
 -1.26399900E-01 -1.70412169E-01 -5.39215181E-02 -1.36941975E-02  8.17239383E-03