 Entering Gaussian System, Link 0=/opt/GAUSSIAN/LINUX_amd64/g03.d02/g03
 Input=mon-p-scan.com
 Output=mon-p-scan.log
 Initial command:
 /opt/GAUSSIAN/LINUX_amd64/g03.d02/l1.exe /daten2/gaussianscratch/Gau-18205.inp -scrdir=/daten2/gaussianscratch/
 Entering Link 1 = /opt/GAUSSIAN/LINUX_amd64/g03.d02/l1.exe PID=     18208.
  
 Copyright (c) 1988,1990,1992,1993,1995,1998,2003,2004, Gaussian, Inc.
                  All Rights Reserved.
  
 This is the Gaussian(R) 03 program.  It is based on the
 the Gaussian(R) 98 system (copyright 1998, Gaussian, Inc.),
 the Gaussian(R) 94 system (copyright 1995, Gaussian, Inc.),
 the Gaussian 92(TM) system (copyright 1992, Gaussian, Inc.),
 the Gaussian 90(TM) system (copyright 1990, Gaussian, Inc.),
 the Gaussian 88(TM) system (copyright 1988, Gaussian, Inc.),
 the Gaussian 86(TM) system (copyright 1986, Carnegie Mellon
 University), and the Gaussian 82(TM) system (copyright 1983,
 Carnegie Mellon University). Gaussian is a federally registered
 trademark of Gaussian, Inc.
  
 This software contains proprietary and confidential information,
 including trade secrets, belonging to Gaussian, Inc.
  
 This software is provided under written license and may be
 used, copied, transmitted, or stored only in accord with that
 written license.
  
 The following legend is applicable only to US Government
 contracts under FAR:
  
                    RESTRICTED RIGHTS LEGEND
  
 Use, reproduction and disclosure by the US Government is
 subject to restrictions as set forth in subparagraphs (a)
 and (c) of the Commercial Computer Software - Restricted
 Rights clause in FAR 52.227-19.
  
 Gaussian, Inc.
 340 Quinnipiac St., Bldg. 40, Wallingford CT 06492
  
  
 ---------------------------------------------------------------
 Warning -- This program may not be used in any manner that
 competes with the business of Gaussian, Inc. or will provide
 assistance to any competitor of Gaussian, Inc.  The licensee
 of this program is prohibited from giving any competitor of
 Gaussian, Inc. access to this program.  By using this program,
 the user acknowledges that Gaussian, Inc. is engaged in the
 business of creating and licensing software in the field of
 computational chemistry and represents and warrants to the
 licensee that it is not a competitor of Gaussian, Inc. and that
 it will not use this program in any manner prohibited above.
 ---------------------------------------------------------------
  

 Cite this work as:
 Gaussian 03, Revision D.02,
 M. J. Frisch, G. W. Trucks, H. B. Schlegel, G. E. Scuseria, 
 M. A. Robb, J. R. Cheeseman, J. A. Montgomery, Jr., T. Vreven, 
 K. N. Kudin, J. C. Burant, J. M. Millam, S. S. Iyengar, J. Tomasi, 
 V. Barone, B. Mennucci, M. Cossi, G. Scalmani, N. Rega, 
 G. A. Petersson, H. Nakatsuji, M. Hada, M. Ehara, K. Toyota, 
 R. Fukuda, J. Hasegawa, M. Ishida, T. Nakajima, Y. Honda, O. Kitao, 
 H. Nakai, M. Klene, X. Li, J. E. Knox, H. P. Hratchian, J. B. Cross, 
 V. Bakken, C. Adamo, J. Jaramillo, R. Gomperts, R. E. Stratmann, 
 O. Yazyev, A. J. Austin, R. Cammi, C. Pomelli, J. W. Ochterski, 
 P. Y. Ayala, K. Morokuma, G. A. Voth, P. Salvador, J. J. Dannenberg, 
 V. G. Zakrzewski, S. Dapprich, A. D. Daniels, M. C. Strain, 
 O. Farkas, D. K. Malick, A. D. Rabuck, K. Raghavachari, 
 J. B. Foresman, J. V. Ortiz, Q. Cui, A. G. Baboul, S. Clifford, 
 J. Cioslowski, B. B. Stefanov, G. Liu, A. Liashenko, P. Piskorz, 
 I. Komaromi, R. L. Martin, D. J. Fox, T. Keith, M. A. Al-Laham, 
 C. Y. Peng, A. Nanayakkara, M. Challacombe, P. M. W. Gill, 
 B. Johnson, W. Chen, M. W. Wong, C. Gonzalez, and J. A. Pople, 
 Gaussian, Inc., Wallingford CT, 2004.
 
 ******************************************
 Gaussian 03:  AM64L-G03RevD.02  1-Mar-2006
                24-Aug-2011 
 ******************************************
 %chk=mon-p-scan.chk
 %mem=1000MB
 %nproc=1
 Will use up to    1 processors via shared memory.
 Default route: MaxDisk=200000000
 ----------------------------------------------------------------------
 # opt=(modredundant,maxcycle=80) b3lyp geom=connectivity int=ultrafine
  tzvp
 ----------------------------------------------------------------------
 1/6=80,14=-1,18=120,26=3,38=1,57=2/1,3;
 2/9=110,17=6,18=5,40=1/2;
 3/5=19,7=101,11=2,16=1,25=1,30=1,74=-5,75=5/1,2,3;
 4//1;
 5/5=2,38=5/2;
 6/7=2,8=2,9=2,10=2,28=1/1;
 7//1,2,3,16;
 1/6=80,14=-1,18=20/3(3);
 2/9=110/2;
 6/7=2,8=2,9=2,10=2,19=2,28=1/1;
 99//99;
 2/9=110/2;
 3/5=19,7=101,11=2,16=1,25=1,30=1,74=-5,75=5/1,2,3;
 4/5=5,16=3/1;
 5/5=2,38=5/2;
 7//1,2,3,16;
 1/6=80,14=-1,18=20/3(-5);
 2/9=110/2;
 6/7=2,8=2,9=2,10=2,19=2,28=1/1;
 99/9=1/99;
 -------------------
 Title Card Required
 -------------------
 Symbolic Z-matrix:
 Charge =  0 Multiplicity = 1
 C                    -0.08097   0.54807   0. 
 H                    -0.13497   1.19357   0.8863 
 H                    -0.13497   1.19357  -0.8863 
 C                     1.22245  -0.22356   0. 
 H                     1.29206  -0.85883  -0.88457 
 H                     2.07195   0.46309   0. 
 H                     1.29206  -0.85883   0.88457 
 O                    -1.15564  -0.39559   0. 
 H                    -1.98989   0.08507   0. 
 
 The following ModRedundant input section has been read:
 D    4    1    8    9 S  36 10.000                                            

 GradGradGradGradGradGradGradGradGradGradGradGradGradGradGradGradGradGrad
 Berny optimization.
 Initialization pass.
                           ----------------------------
                           !    Initial Parameters    !
                           ! (Angstroms and Degrees)  !
 --------------------------                            --------------------------
 ! Name  Definition              Value          Derivative Info.                !
 --------------------------------------------------------------------------------
 ! R1    R(1,2)                  1.0978         estimate D2E/DX2                !
 ! R2    R(1,3)                  1.0978         estimate D2E/DX2                !
 ! R3    R(1,4)                  1.5147         estimate D2E/DX2                !
 ! R4    R(1,8)                  1.4302         estimate D2E/DX2                !
 ! R5    R(4,5)                  1.0913         estimate D2E/DX2                !
 ! R6    R(4,6)                  1.0923         estimate D2E/DX2                !
 ! R7    R(4,7)                  1.0913         estimate D2E/DX2                !
 ! R8    R(8,9)                  0.9628         estimate D2E/DX2                !
 ! A1    A(2,1,3)              107.6767         estimate D2E/DX2                !
 ! A2    A(2,1,4)              109.9915         estimate D2E/DX2                !
 ! A3    A(2,1,8)              110.5493         estimate D2E/DX2                !
 ! A4    A(3,1,4)              109.9915         estimate D2E/DX2                !
 ! A5    A(3,1,8)              110.5493         estimate D2E/DX2                !
 ! A6    A(4,1,8)              108.0884         estimate D2E/DX2                !
 ! A7    A(1,4,5)              110.5758         estimate D2E/DX2                !
 ! A8    A(1,4,6)              110.4259         estimate D2E/DX2                !
 ! A9    A(1,4,7)              110.5758         estimate D2E/DX2                !
 ! A10   A(5,4,6)              108.4413         estimate D2E/DX2                !
 ! A11   A(5,4,7)              108.3066         estimate D2E/DX2                !
 ! A12   A(6,4,7)              108.4413         estimate D2E/DX2                !
 ! A13   A(1,8,9)              108.7653         estimate D2E/DX2                !
 ! D1    D(2,1,4,5)           -179.242          estimate D2E/DX2                !
 ! D2    D(2,1,4,6)            -59.2183         estimate D2E/DX2                !
 ! D3    D(2,1,4,7)             60.8054         estimate D2E/DX2                !
 ! D4    D(3,1,4,5)            -60.8054         estimate D2E/DX2                !
 ! D5    D(3,1,4,6)             59.2183         estimate D2E/DX2                !
 ! D6    D(3,1,4,7)            179.242          estimate D2E/DX2                !
 ! D7    D(8,1,4,5)             59.9763         estimate D2E/DX2                !
 ! D8    D(8,1,4,6)            180.0            estimate D2E/DX2                !
 ! D9    D(8,1,4,7)            -59.9763         estimate D2E/DX2                !
 ! D10   D(2,1,8,9)             59.5666         estimate D2E/DX2                !
 ! D11   D(3,1,8,9)            -59.5666         estimate D2E/DX2                !
 ! D12   D(4,1,8,9)            180.0            Scan                            !
 --------------------------------------------------------------------------------
 Trust Radius=3.00D-01 FncErr=1.00D-07 GrdErr=1.00D-06
 Number of optimizations in scan=  37
 Number of steps in this run=  80 maximum allowed number of steps= 100.
 GradGradGradGradGradGradGradGradGradGradGradGradGradGradGradGradGradGrad

                          Input orientation:                          
 ---------------------------------------------------------------------
 Center     Atomic     Atomic              Coordinates (Angstroms)
 Number     Number      Type              X           Y           Z
 ---------------------------------------------------------------------
    1          6             0       -0.080968    0.548066    0.000000
    2          1             0       -0.134973    1.193574    0.886301
    3          1             0       -0.134973    1.193574   -0.886301
    4          6             0        1.222447   -0.223558    0.000000
    5          1             0        1.292058   -0.858825   -0.884571
    6          1             0        2.071952    0.463094    0.000000
    7          1             0        1.292058   -0.858825    0.884571
    8          8             0       -1.155638   -0.395589    0.000000
    9          1             0       -1.989889    0.085070    0.000000
 ---------------------------------------------------------------------
                    Distance matrix (angstroms):
                    1          2          3          4          5
     1  C    0.000000
     2  H    1.097783   0.000000
     3  H    1.097783   1.772602   0.000000
     4  C    1.514693   2.153226   2.153226   0.000000
     5  H    2.155692   3.063453   2.499752   1.091273   0.000000
     6  H    2.154596   2.487900   2.487900   1.092314   1.771488
     7  H    2.155692   2.499752   3.063453   1.091273   1.769142
     8  O    1.430175   2.086319   2.086319   2.384299   2.643533
     9  H    1.964267   2.335599   2.335599   3.227128   3.527688
                    6          7          8          9
     6  H    0.000000
     7  H    1.771488   0.000000
     8  O    3.339861   2.643533   0.000000
     9  H    4.079394   3.527688   0.962812   0.000000
 Stoichiometry    C2H6O
 Framework group  CS[SG(C2H2O),X(H4)]
 Deg. of freedom    13
 Full point group                 CS
 Largest Abelian subgroup         CS      NOp   2
 Largest concise Abelian subgroup CS      NOp   2
                         Standard orientation:                         
 ---------------------------------------------------------------------
 Center     Atomic     Atomic              Coordinates (Angstroms)
 Number     Number      Type              X           Y           Z
 ---------------------------------------------------------------------
    1          6             0        0.000000    0.554015    0.000000
    2          1             0        0.040915    1.200484    0.886301
    3          1             0        0.040915    1.200484   -0.886301
    4          6             0        1.176649   -0.399816    0.000000
    5          1             0        1.152669   -1.038435   -0.884571
    6          1             0        2.117385    0.155310    0.000000
    7          1             0        1.152669   -1.038435    0.884571
    8          8             0       -1.201044   -0.222447    0.000000
    9          1             0       -1.956090    0.374975    0.000000
 ---------------------------------------------------------------------
 Rotational constants (GHZ):     35.2240868      9.3243329      8.1216045
 Standard basis: TZVP (5D, 7F)
 There are    64 symmetry adapted basis functions of A'  symmetry.
 There are    29 symmetry adapted basis functions of A"  symmetry.
 Integral buffers will be    131072 words long.
 Raffenetti 2 integral format.
 Two-electron integral symmetry is turned on.
    93 basis functions,   153 primitive gaussians,    96 cartesian basis functions
    13 alpha electrons       13 beta electrons
       nuclear repulsion energy        81.6675366218 Hartrees.
 NAtoms=    9 NActive=    9 NUniq=    7 SFac= 1.24D+00 NAtFMM=   80 NAOKFM=F Big=F
 One-electron integrals computed using PRISM.
 NBasis=    93 RedAO= T  NBF=    64    29
 NBsUse=    93 1.00D-06 NBFU=    64    29
 Harris functional with IExCor=  402 diagonalized for initial guess.
 ExpMin= 9.52D-02 ExpMax= 2.70D+04 ExpMxC= 9.22D+02 IAcc=3 IRadAn=         5 AccDes= 0.00D+00
 HarFok:  IExCor= 402 AccDes= 0.00D+00 IRadAn=         5 IDoV=1
 ScaDFX=  1.000000  1.000000  1.000000  1.000000
 Initial guess orbital symmetries:
       Occupied  (A') (A') (A') (A') (A') (A') (A') (A") (A') (A')
                 (A") (A') (A")
       Virtual   (A') (A') (A') (A") (A') (A') (A") (A') (A') (A")
                 (A') (A") (A') (A') (A') (A') (A") (A') (A') (A")
                 (A') (A') (A") (A') (A') (A') (A") (A') (A") (A')
                 (A') (A") (A') (A') (A") (A') (A") (A') (A") (A')
                 (A') (A") (A") (A') (A") (A') (A") (A') (A') (A')
                 (A') (A') (A") (A') (A') (A') (A") (A') (A") (A')
                 (A') (A") (A") (A') (A') (A") (A') (A") (A') (A')
                 (A') (A") (A') (A') (A") (A') (A') (A') (A') (A')
 The electronic state of the initial guess is 1-A'.
 Requested convergence on RMS density matrix=1.00D-08 within 128 cycles.
 Requested convergence on MAX density matrix=1.00D-06.
 Requested convergence on             energy=1.00D-06.
 No special actions if energy rises.
 Keep R1 integrals in memory in canonical form, NReq=    12836555.
 Integral accuracy reduced to 1.0D-05 until final iterations.
 Initial convergence to 1.0D-05 achieved.  Increase integral accuracy.
 SCF Done:  E(RB+HF-LYP) =  -155.104078004     A.U. after   12 cycles
             Convg  =    0.4093D-08             -V/T =  2.0049
             S**2   =   0.0000

 **********************************************************************

            Population analysis using the SCF density.

 **********************************************************************

 Orbital symmetries:
       Occupied  (A') (A') (A') (A') (A') (A') (A') (A") (A') (A')
                 (A") (A') (A")
       Virtual   (A') (A') (A') (A") (A') (A") (A') (A') (A') (A")
                 (A') (A") (A') (A') (A') (A') (A") (A') (A') (A')
                 (A") (A') (A") (A') (A') (A') (A") (A') (A") (A')
                 (A') (A") (A') (A') (A") (A') (A") (A') (A") (A')
                 (A') (A") (A") (A') (A") (A') (A") (A') (A') (A')
                 (A') (A') (A") (A') (A') (A') (A") (A') (A') (A")
                 (A') (A") (A") (A') (A') (A') (A") (A") (A') (A')
                 (A') (A") (A') (A') (A") (A') (A') (A') (A') (A')
 The electronic state is 1-A'.
 Alpha  occ. eigenvalues --  -19.12336 -10.21921 -10.16052  -1.02049  -0.75294
 Alpha  occ. eigenvalues --   -0.61434  -0.52098  -0.46910  -0.40619  -0.38688
 Alpha  occ. eigenvalues --   -0.36901  -0.33700  -0.27744
 Alpha virt. eigenvalues --    0.02582   0.05671   0.08992   0.10025   0.11363
 Alpha virt. eigenvalues --    0.13532   0.14982   0.17381   0.20424   0.23240
 Alpha virt. eigenvalues --    0.26850   0.29234   0.31845   0.36937   0.39799
 Alpha virt. eigenvalues --    0.41898   0.43123   0.44921   0.47513   0.49213
 Alpha virt. eigenvalues --    0.49653   0.53161   0.55029   0.57277   0.67113
 Alpha virt. eigenvalues --    0.83084   1.14645   1.17044   1.25649   1.26051
 Alpha virt. eigenvalues --    1.29289   1.31903   1.34294   1.35237   1.40798
 Alpha virt. eigenvalues --    1.45147   1.45688   1.50958   1.54077   1.62442
 Alpha virt. eigenvalues --    1.65814   1.72142   1.77088   1.79286   1.79983
 Alpha virt. eigenvalues --    1.85708   1.86756   1.93757   2.05861   2.10412
 Alpha virt. eigenvalues --    2.17864   2.21232   2.29104   2.29391   2.35352
 Alpha virt. eigenvalues --    2.40048   2.49525   2.54797   2.58923   2.59406
 Alpha virt. eigenvalues --    2.60414   2.63749   2.69291   2.71880   2.88758
 Alpha virt. eigenvalues --    2.93336   2.94085   3.05380   3.07368   3.16714
 Alpha virt. eigenvalues --    3.21684   3.31489   3.32235   3.37096   3.37645
 Alpha virt. eigenvalues --    3.95200   4.30696  21.85929  22.02165  43.42688
          Condensed to atoms (all electrons):
              1          2          3          4          5          6
     1  C    4.858289   0.410513   0.410513   0.247335  -0.035349  -0.021661
     2  H    0.410513   0.678722  -0.073188  -0.051276   0.012031   0.000410
     3  H    0.410513  -0.073188   0.678722  -0.051276  -0.013487   0.000410
     4  C    0.247335  -0.051276  -0.051276   5.093497   0.395251   0.367215
     5  H   -0.035349   0.012031  -0.013487   0.395251   0.574962  -0.027152
     6  H   -0.021661   0.000410   0.000410   0.367215  -0.027152   0.599127
     7  H   -0.035349  -0.013487   0.012031   0.395251  -0.030514  -0.027152
     8  O    0.288250  -0.053399  -0.053399  -0.101064   0.006954   0.006827
     9  H   -0.039321  -0.005141  -0.005141   0.016413  -0.000511  -0.001067
              7          8          9
     1  C   -0.035349   0.288250  -0.039321
     2  H   -0.013487  -0.053399  -0.005141
     3  H    0.012031  -0.053399  -0.005141
     4  C    0.395251  -0.101064   0.016413
     5  H   -0.030514   0.006954  -0.000511
     6  H   -0.027152   0.006827  -0.001067
     7  H    0.574962   0.006954  -0.000511
     8  O    0.006954   8.002881   0.292812
     9  H   -0.000511   0.292812   0.479383
 Mulliken atomic charges:
              1
     1  C   -0.083221
     2  H    0.094815
     3  H    0.094815
     4  C   -0.311345
     5  H    0.117814
     6  H    0.103042
     7  H    0.117814
     8  O   -0.396817
     9  H    0.263084
 Sum of Mulliken charges=   0.00000
 Atomic charges with hydrogens summed into heavy atoms:
              1
     1  C    0.106408
     2  H    0.000000
     3  H    0.000000
     4  C    0.027325
     5  H    0.000000
     6  H    0.000000
     7  H    0.000000
     8  O   -0.133733
     9  H    0.000000
 Sum of Mulliken charges=   0.00000
 Electronic spatial extent (au):  <R**2>=   194.8206
 Charge=     0.0000 electrons
 Dipole moment (field-independent basis, Debye):
    X=     0.0831    Y=     1.7081    Z=     0.0000  Tot=     1.7101
 Quadrupole moment (field-independent basis, Debye-Ang):
   XX=   -17.8983   YY=   -20.3244   ZZ=   -20.3845
   XY=    -2.5327   XZ=     0.0000   YZ=     0.0000
 Traceless Quadrupole moment (field-independent basis, Debye-Ang):
   XX=     1.6374   YY=    -0.7887   ZZ=    -0.8487
   XY=    -2.5327   XZ=     0.0000   YZ=     0.0000
 Octapole moment (field-independent basis, Debye-Ang**2):
  XXX=   -14.2672  YYY=     0.0533  ZZZ=     0.0000  XYY=    -1.7469
  XXY=     4.6561  XXZ=     0.0000  XZZ=    -1.3114  YZZ=    -0.0120
  YYZ=     0.0000  XYZ=     0.0000
 Hexadecapole moment (field-independent basis, Debye-Ang**3):
 XXXX=  -135.6599 YYYY=   -63.1918 ZZZZ=   -35.0227 XXXY=     3.4997
 XXXZ=     0.0000 YYYX=     7.8685 YYYZ=     0.0000 ZZZX=     0.0000
 ZZZY=     0.0000 XXYY=   -36.5133 XXZZ=   -33.9156 YYZZ=   -14.8805
 XXYZ=     0.0000 YYXZ=     0.0000 ZZXY=     1.8481
 N-N= 8.166753662176D+01 E-N=-5.259467668280D+02  KE= 1.543454886683D+02
 Symmetry A'   KE= 1.456831276455D+02
 Symmetry A"   KE= 8.662361022764D+00
 ***** Axes restored to original set *****
 -------------------------------------------------------------------
 Center     Atomic                   Forces (Hartrees/Bohr)
 Number     Number              X              Y              Z
 -------------------------------------------------------------------
    1          6           0.000002571   -0.000003837    0.000000000
    2          1          -0.000001078    0.000001637   -0.000000280
    3          1          -0.000001078    0.000001637    0.000000280
    4          6          -0.000001388    0.000003147    0.000000000
    5          1          -0.000000014   -0.000000292    0.000000100
    6          1           0.000000518   -0.000000409    0.000000000
    7          1          -0.000000014   -0.000000292   -0.000000100
    8          8          -0.000000692   -0.000000890    0.000000000
    9          1           0.000001175   -0.000000700    0.000000000
 -------------------------------------------------------------------
 Cartesian Forces:  Max     0.000003837 RMS     0.000001288

 GradGradGradGradGradGradGradGradGradGradGradGradGradGradGradGradGradGrad
 Berny optimization.
 Internal  Forces:  Max     0.000001770 RMS     0.000000797
 Search for a local minimum.
 Step number   1 out of a maximum of  80 on scan point     1 out of    37
 All quantities printed in internal units (Hartrees-Bohrs-Radians)
 Second derivative matrix not updated -- first step.
     Eigenvalues ---    0.00572   0.04423   0.05742   0.05752   0.06015
     Eigenvalues ---    0.11101   0.11777   0.16000   0.16000   0.16000
     Eigenvalues ---    0.16000   0.21969   0.30884   0.33929   0.33929
     Eigenvalues ---    0.34547   0.34666   0.34666   0.40964   0.54873
     Eigenvalues --- 1000.000001000.000001000.000001000.000001000.00000
     Eigenvalues --- 1000.000001000.000001000.000001000.000001000.00000
     Eigenvalues --- 1000.000001000.000001000.00000
 RFO step:  Lambda= 0.00000000D+00.
 Linear search not attempted -- first point.
 Iteration  1 RMS(Cart)=  0.00000841 RMS(Int)=  0.00000000
 Iteration  2 RMS(Cart)=  0.00000000 RMS(Int)=  0.00000000
 Iteration  1 RMS(Cart)=  0.00000000 RMS(Int)=  0.00000000
 Variable       Old X    -DE/DX   Delta X   Delta X   Delta X     New X
                                 (Linear)    (Quad)   (Total)
    R1        2.07451   0.00000   0.00000   0.00000   0.00000   2.07451
    R2        2.07451   0.00000   0.00000   0.00000   0.00000   2.07451
    R3        2.86235   0.00000   0.00000  -0.00001  -0.00001   2.86235
    R4        2.70264   0.00000   0.00000   0.00000   0.00000   2.70264
    R5        2.06221   0.00000   0.00000   0.00000   0.00000   2.06221
    R6        2.06417   0.00000   0.00000   0.00000   0.00000   2.06417
    R7        2.06221   0.00000   0.00000   0.00000   0.00000   2.06221
    R8        1.81945   0.00000   0.00000   0.00000   0.00000   1.81945
    A1        1.87931   0.00000   0.00000  -0.00002  -0.00002   1.87930
    A2        1.91971   0.00000   0.00000   0.00001   0.00001   1.91972
    A3        1.92945   0.00000   0.00000   0.00000   0.00000   1.92945
    A4        1.91971   0.00000   0.00000   0.00001   0.00001   1.91972
    A5        1.92945   0.00000   0.00000   0.00000   0.00000   1.92945
    A6        1.88650   0.00000   0.00000   0.00000   0.00000   1.88649
    A7        1.92991   0.00000   0.00000   0.00000   0.00000   1.92991
    A8        1.92730   0.00000   0.00000   0.00001   0.00001   1.92731
    A9        1.92991   0.00000   0.00000   0.00000   0.00000   1.92991
   A10        1.89266   0.00000   0.00000   0.00000   0.00000   1.89266
   A11        1.89031   0.00000   0.00000  -0.00001  -0.00001   1.89030
   A12        1.89266   0.00000   0.00000   0.00000   0.00000   1.89266
   A13        1.89831   0.00000   0.00000  -0.00001  -0.00001   1.89831
    D1       -3.12836   0.00000   0.00000   0.00000   0.00000  -3.12837
    D2       -1.03355   0.00000   0.00000   0.00000   0.00000  -1.03355
    D3        1.06125   0.00000   0.00000   0.00001   0.00001   1.06126
    D4       -1.06125   0.00000   0.00000  -0.00001  -0.00001  -1.06126
    D5        1.03355   0.00000   0.00000   0.00000   0.00000   1.03355
    D6        3.12836   0.00000   0.00000   0.00000   0.00000   3.12837
    D7        1.04678   0.00000   0.00000  -0.00001  -0.00001   1.04678
    D8        3.14159   0.00000   0.00000   0.00000   0.00000   3.14159
    D9       -1.04678   0.00000   0.00000   0.00001   0.00001  -1.04678
   D10        1.03963   0.00000   0.00000  -0.00001  -0.00001   1.03962
   D11       -1.03963   0.00000   0.00000   0.00001   0.00001  -1.03962
   D12        3.14159   0.00000   0.00000   0.00000   0.00000   3.14159
         Item               Value     Threshold  Converged?
 Maximum Force            0.000002     0.000450     YES
 RMS     Force            0.000001     0.000300     YES
 Maximum Displacement     0.000017     0.001800     YES
 RMS     Displacement     0.000008     0.001200     YES
 Predicted change in Energy=-7.082865D-11
 Optimization completed.
    -- Stationary point found.
                           ----------------------------
                           !   Optimized Parameters   !
                           ! (Angstroms and Degrees)  !
 --------------------------                            --------------------------
 ! Name  Definition              Value          Derivative Info.                !
 --------------------------------------------------------------------------------
 ! R1    R(1,2)                  1.0978         -DE/DX =    0.0                 !
 ! R2    R(1,3)                  1.0978         -DE/DX =    0.0                 !
 ! R3    R(1,4)                  1.5147         -DE/DX =    0.0                 !
 ! R4    R(1,8)                  1.4302         -DE/DX =    0.0                 !
 ! R5    R(4,5)                  1.0913         -DE/DX =    0.0                 !
 ! R6    R(4,6)                  1.0923         -DE/DX =    0.0                 !
 ! R7    R(4,7)                  1.0913         -DE/DX =    0.0                 !
 ! R8    R(8,9)                  0.9628         -DE/DX =    0.0                 !
 ! A1    A(2,1,3)              107.6767         -DE/DX =    0.0                 !
 ! A2    A(2,1,4)              109.9915         -DE/DX =    0.0                 !
 ! A3    A(2,1,8)              110.5493         -DE/DX =    0.0                 !
 ! A4    A(3,1,4)              109.9915         -DE/DX =    0.0                 !
 ! A5    A(3,1,8)              110.5493         -DE/DX =    0.0                 !
 ! A6    A(4,1,8)              108.0884         -DE/DX =    0.0                 !
 ! A7    A(1,4,5)              110.5758         -DE/DX =    0.0                 !
 ! A8    A(1,4,6)              110.4259         -DE/DX =    0.0                 !
 ! A9    A(1,4,7)              110.5758         -DE/DX =    0.0                 !
 ! A10   A(5,4,6)              108.4413         -DE/DX =    0.0                 !
 ! A11   A(5,4,7)              108.3066         -DE/DX =    0.0                 !
 ! A12   A(6,4,7)              108.4413         -DE/DX =    0.0                 !
 ! A13   A(1,8,9)              108.7653         -DE/DX =    0.0                 !
 ! D1    D(2,1,4,5)           -179.242          -DE/DX =    0.0                 !
 ! D2    D(2,1,4,6)            -59.2183         -DE/DX =    0.0                 !
 ! D3    D(2,1,4,7)             60.8054         -DE/DX =    0.0                 !
 ! D4    D(3,1,4,5)            -60.8054         -DE/DX =    0.0                 !
 ! D5    D(3,1,4,6)             59.2183         -DE/DX =    0.0                 !
 ! D6    D(3,1,4,7)            179.242          -DE/DX =    0.0                 !
 ! D7    D(8,1,4,5)             59.9763         -DE/DX =    0.0                 !
 ! D8    D(8,1,4,6)            180.0            -DE/DX =    0.0                 !
 ! D9    D(8,1,4,7)            -59.9763         -DE/DX =    0.0                 !
 ! D10   D(2,1,8,9)             59.5666         -DE/DX =    0.0                 !
 ! D11   D(3,1,8,9)            -59.5666         -DE/DX =    0.0                 !
 ! D12   D(4,1,8,9)            180.0            -DE/DX =    0.0                 !
 --------------------------------------------------------------------------------
 Iteration  1 RMS(Cart)=  0.02392760 RMS(Int)=  0.02121655
 Iteration  2 RMS(Cart)=  0.00091392 RMS(Int)=  0.02120251
 Iteration  3 RMS(Cart)=  0.00000691 RMS(Int)=  0.02120251
 Iteration  4 RMS(Cart)=  0.00000047 RMS(Int)=  0.02120251
 Iteration  1 RMS(Cart)=  0.01166341 RMS(Int)=  0.01033079
 Iteration  2 RMS(Cart)=  0.00569098 RMS(Int)=  0.01154976
 Iteration  3 RMS(Cart)=  0.00277580 RMS(Int)=  0.01287329
 Iteration  4 RMS(Cart)=  0.00135376 RMS(Int)=  0.01364083
 Iteration  5 RMS(Cart)=  0.00066021 RMS(Int)=  0.01403875
 Iteration  6 RMS(Cart)=  0.00032197 RMS(Int)=  0.01423786
 Iteration  7 RMS(Cart)=  0.00015702 RMS(Int)=  0.01433611
 Iteration  8 RMS(Cart)=  0.00007657 RMS(Int)=  0.01438429
 Iteration  9 RMS(Cart)=  0.00003734 RMS(Int)=  0.01440785
 Iteration 10 RMS(Cart)=  0.00001821 RMS(Int)=  0.01441935
 Iteration 11 RMS(Cart)=  0.00000888 RMS(Int)=  0.01442496
 Iteration 12 RMS(Cart)=  0.00000433 RMS(Int)=  0.01442770
 Iteration 13 RMS(Cart)=  0.00000211 RMS(Int)=  0.01442904
 Iteration 14 RMS(Cart)=  0.00000103 RMS(Int)=  0.01442969
 Iteration 15 RMS(Cart)=  0.00000050 RMS(Int)=  0.01443001
 GradGradGradGradGradGradGradGradGradGradGradGradGradGradGradGradGradGrad

                          Input orientation:                          
 ---------------------------------------------------------------------
 Center     Atomic     Atomic              Coordinates (Angstroms)
 Number     Number      Type              X           Y           Z
 ---------------------------------------------------------------------
    1          6             0       -0.080680    0.549896    0.048221
    2          1             0       -0.169448    1.228569    0.906652
    3          1             0       -0.099221    1.160005   -0.864366
    4          6             0        1.220827   -0.223303   -0.004265
    5          1             0        1.256195   -0.854738   -0.893656
    6          1             0        2.070726    0.462297   -0.033261
    7          1             0        1.322837   -0.862568    0.874314
    8          8             0       -1.155066   -0.394081    0.045989
    9          1             0       -1.984098    0.080504   -0.079628
 ---------------------------------------------------------------------
                    Distance matrix (angstroms):
                    1          2          3          4          5
     1  C    0.000000
     2  H    1.097899   0.000000
     3  H    1.097903   1.773736   0.000000
     4  C    1.514765   2.206937   2.096626   0.000000
     5  H    2.155775   3.100603   2.428415   1.091319   0.000000
     6  H    2.154730   2.547350   2.426149   1.092345   1.771531
     7  H    2.155770   2.569206   3.022591   1.091314   1.769242
     8  O    1.430175   2.084509   2.087758   2.382552   2.628558
     9  H    1.964605   2.362997   2.309523   3.220174   3.469412
                    6          7          8          9
     6  H    0.000000
     7  H    1.771524   0.000000
     8  O    3.338472   2.654356   0.000000
     9  H    4.073023   3.568642   0.963485   0.000000
 Stoichiometry    C2H6O
 Framework group  C1[X(C2H6O)]
 Deg. of freedom    21
 Full point group                 C1
 Omega: Change in point group or standard orientation.

 Old FWG=CS   [SG(C2H2O1),X(H4)]
 New FWG=C01  [X(C2H6O1)]
 Largest Abelian subgroup         C1      NOp   1
 Largest concise Abelian subgroup C1      NOp   1
                         Standard orientation:                         
 ---------------------------------------------------------------------
 Center     Atomic     Atomic              Coordinates (Angstroms)
 Number     Number      Type              X           Y           Z
 ---------------------------------------------------------------------
    1          6             0        0.081044    0.549561   -0.012483
    2          1             0        0.182842    1.249357   -0.852307
    3          1             0        0.085870    1.136747    0.915192
    4          6             0       -1.221194   -0.224069    0.001079
    5          1             0       -1.270060   -0.877438    0.873832
    6          1             0       -2.071357    0.461012    0.034310
    7          1             0       -1.309997   -0.841208   -0.894588
    8          8             0        1.155167   -0.394703   -0.017546
    9          1             0        1.982261    0.076201    0.132351
 ---------------------------------------------------------------------
 Rotational constants (GHZ):     35.1467007      9.3376125      8.1317240
 Standard basis: TZVP (5D, 7F)
 There are    93 symmetry adapted basis functions of A   symmetry.
 Integral buffers will be    131072 words long.
 Raffenetti 2 integral format.
 Two-electron integral symmetry is turned on.
    93 basis functions,   153 primitive gaussians,    96 cartesian basis functions
    13 alpha electrons       13 beta electrons
       nuclear repulsion energy        81.6817092735 Hartrees.
 NAtoms=    9 NActive=    9 NUniq=    9 SFac= 7.50D-01 NAtFMM=   80 NAOKFM=F Big=F
 One-electron integrals computed using PRISM.
 NBasis=    93 RedAO= T  NBF=    93
 NBsUse=    93 1.00D-06 NBFU=    93
 Initial guess read from the read-write file:
 Initial guess orbital symmetries:
       Occupied  (A) (A) (A) (A) (A) (A) (A) (A) (A) (A) (A) (A)
                 (A)
       Virtual   (A) (A) (A) (A) (A) (A) (A) (A) (A) (A) (A) (A)
                 (A) (A) (A) (A) (A) (A) (A) (A) (A) (A) (A) (A)
                 (A) (A) (A) (A) (A) (A) (A) (A) (A) (A) (A) (A)
                 (A) (A) (A) (A) (A) (A) (A) (A) (A) (A) (A) (A)
                 (A) (A) (A) (A) (A) (A) (A) (A) (A) (A) (A) (A)
                 (A) (A) (A) (A) (A) (A) (A) (A) (A) (A) (A) (A)
                 (A) (A) (A) (A) (A) (A) (A) (A)
 Harris functional with IExCor=  402 diagonalized for initial guess.
 ExpMin= 9.52D-02 ExpMax= 2.70D+04 ExpMxC= 9.22D+02 IAcc=3 IRadAn=         5 AccDes= 0.00D+00
 HarFok:  IExCor= 402 AccDes= 0.00D+00 IRadAn=         5 IDoV=1
 ScaDFX=  1.000000  1.000000  1.000000  1.000000
 Requested convergence on RMS density matrix=1.00D-08 within 128 cycles.
 Requested convergence on MAX density matrix=1.00D-06.
 Requested convergence on             energy=1.00D-06.
 No special actions if energy rises.
 Keep R1 integrals in memory in canonical form, NReq=    12836411.
 Integral accuracy reduced to 1.0D-05 until final iterations.
 Initial convergence to 1.0D-05 achieved.  Increase integral accuracy.
 SCF Done:  E(RB+HF-LYP) =  -155.103056871     A.U. after   13 cycles
             Convg  =    0.2278D-08             -V/T =  2.0049
             S**2   =   0.0000
 ***** Axes restored to original set *****
 -------------------------------------------------------------------
 Center     Atomic                   Forces (Hartrees/Bohr)
 Number     Number              X              Y              Z
 -------------------------------------------------------------------
    1          6          -0.000184781   -0.000315525   -0.012092885
    2          1           0.004756368   -0.002646628    0.000963007
    3          1          -0.005084133    0.003137821    0.000894626
    4          6           0.000871094   -0.000170283    0.008884486
    5          1          -0.001204400    0.000786918    0.000165127
    6          1           0.000060620   -0.000031232    0.000273790
    7          1           0.001225641   -0.000794614    0.000001326
    8          8          -0.000970264    0.000378734    0.000256571
    9          1           0.000529855   -0.000345192    0.000653951
 -------------------------------------------------------------------
 Cartesian Forces:  Max     0.012092885 RMS     0.003330175

 GradGradGradGradGradGradGradGradGradGradGradGradGradGradGradGradGradGrad
 Berny optimization.
 Internal  Forces:  Max     0.008165368 RMS     0.002573567
 Search for a local minimum.
 Step number   1 out of a maximum of  80 on scan point     2 out of    37
 All quantities printed in internal units (Hartrees-Bohrs-Radians)
 Second derivative matrix not updated -- first step.
     Eigenvalues ---    0.00572   0.04342   0.05742   0.05752   0.06084
     Eigenvalues ---    0.11015   0.11851   0.16000   0.16000   0.16000
     Eigenvalues ---    0.16000   0.21951   0.30884   0.33929   0.33929
     Eigenvalues ---    0.34547   0.34666   0.34666   0.40964   0.54873
     Eigenvalues --- 1000.000001000.000001000.000001000.000001000.00000
     Eigenvalues --- 1000.000001000.000001000.000001000.000001000.00000
     Eigenvalues --- 1000.000001000.000001000.00000
 RFO step:  Lambda=-1.74401542D-03.
 Linear search not attempted -- first point.
 Iteration  1 RMS(Cart)=  0.02638521 RMS(Int)=  0.00081115
 Iteration  2 RMS(Cart)=  0.00065845 RMS(Int)=  0.00047492
 Iteration  3 RMS(Cart)=  0.00000030 RMS(Int)=  0.00047492
 Iteration  1 RMS(Cart)=  0.00000018 RMS(Int)=  0.00000016
 Variable       Old X    -DE/DX   Delta X   Delta X   Delta X     New X
                                 (Linear)    (Quad)   (Total)
    R1        2.07473  -0.00127   0.00000  -0.00372  -0.00372   2.07101
    R2        2.07474   0.00109   0.00000   0.00318   0.00318   2.07792
    R3        2.86249   0.00060   0.00000   0.00194   0.00194   2.86443
    R4        2.70264   0.00031   0.00000   0.00075   0.00075   2.70339
    R5        2.06229  -0.00063   0.00000  -0.00181  -0.00181   2.06049
    R6        2.06423   0.00002   0.00000   0.00006   0.00006   2.06429
    R7        2.06228   0.00058   0.00000   0.00167   0.00167   2.06395
    R8        1.82072  -0.00071   0.00000  -0.00129  -0.00129   1.81943
    A1        1.88077  -0.00049   0.00000  -0.00140  -0.00018   1.88059
    A2        1.99555  -0.00817   0.00000  -0.06403  -0.06388   1.93166
    A3        1.92676   0.00232   0.00000  -0.00238  -0.00346   1.92330
    A4        1.84353   0.00816   0.00000   0.06827   0.06844   1.91197
    A5        1.93136  -0.00252   0.00000   0.00048  -0.00060   1.93076
    A6        1.88441   0.00084   0.00000   0.00254   0.00149   1.88590
    A7        1.92989  -0.00230   0.00000  -0.01593  -0.01592   1.91397
    A8        1.92736   0.00008   0.00000   0.00057   0.00052   1.92788
    A9        1.92989   0.00231   0.00000   0.01592   0.01593   1.94581
   A10        1.89263   0.00078   0.00000   0.00167   0.00162   1.89425
   A11        1.89035  -0.00003   0.00000  -0.00032  -0.00025   1.89010
   A12        1.89262  -0.00085   0.00000  -0.00192  -0.00198   1.89065
   A13        1.89809   0.00011   0.00000   0.00068   0.00068   1.89877
    D1       -3.11301  -0.00052   0.00000  -0.00662  -0.00602  -3.11903
    D2       -1.01822  -0.00099   0.00000  -0.01448  -0.01385  -1.03207
    D3        1.07657  -0.00050   0.00000  -0.00621  -0.00554   1.07103
    D4       -1.04824  -0.00029   0.00000   0.00107   0.00040  -1.04783
    D5        1.04656  -0.00075   0.00000  -0.00678  -0.00743   1.03913
    D6        3.14135  -0.00026   0.00000   0.00149   0.00088  -3.14095
    D7        1.01848   0.00144   0.00000   0.03839   0.03836   1.05684
    D8        3.11328   0.00097   0.00000   0.03053   0.03053  -3.13938
    D9       -1.07512   0.00146   0.00000   0.03880   0.03884  -1.03628
   D10        1.12318   0.00215   0.00000   0.08035   0.08042   1.20361
   D11       -0.95739   0.00288   0.00000   0.08331   0.08323  -0.87416
   D12       -2.96706  -0.00600   0.00000   0.00000   0.00000  -2.96706
         Item               Value     Threshold  Converged?
 Maximum Force            0.005691     0.000450     NO 
 RMS     Force            0.002153     0.000300     NO 
 Maximum Displacement     0.088940     0.001800     NO 
 RMS     Displacement     0.026346     0.001200     NO 
 Predicted change in Energy=-8.938755D-04
 GradGradGradGradGradGradGradGradGradGradGradGradGradGradGradGradGradGrad

                          Input orientation:                          
 ---------------------------------------------------------------------
 Center     Atomic     Atomic              Coordinates (Angstroms)
 Number     Number      Type              X           Y           Z
 ---------------------------------------------------------------------
    1          6             0       -0.080529    0.550857    0.024138
    2          1             0       -0.126709    1.207168    0.900602
    3          1             0       -0.146286    1.183906   -0.872533
    4          6             0        1.222198   -0.223807    0.003637
    5          1             0        1.260713   -0.853386   -0.885766
    6          1             0        2.073196    0.460739   -0.018423
    7          1             0        1.320105   -0.865213    0.882219
    8          8             0       -1.156327   -0.391587    0.055603
    9          1             0       -1.984286    0.077904   -0.089478
 ---------------------------------------------------------------------
                    Distance matrix (angstroms):
                    1          2          3          4          5
     1  C    0.000000
     2  H    1.095932   0.000000
     3  H    1.099589   1.773396   0.000000
     4  C    1.515791   2.161432   2.149902   0.000000
     5  H    2.144470   3.059728   2.475961   1.090363   0.000000
     6  H    2.156029   2.498268   2.485674   1.092376   1.771817
     7  H    2.168716   2.527523   3.070561   1.092196   1.769022
     8  O    1.430571   2.080902   2.088971   2.385002   2.634676
     9  H    1.964913   2.388741   2.283563   3.221994   3.468631
                    6          7          8          9
     6  H    0.000000
     7  H    1.771003   0.000000
     8  O    3.340922   2.653362   0.000000
     9  H    4.076122   3.571087   0.962801   0.000000
 Stoichiometry    C2H6O
 Framework group  C1[X(C2H6O)]
 Deg. of freedom    21
 Full point group                 C1
 Largest Abelian subgroup         C1      NOp   1
 Largest concise Abelian subgroup C1      NOp   1
                         Standard orientation:                         
 ---------------------------------------------------------------------
 Center     Atomic     Atomic              Coordinates (Angstroms)
 Number     Number      Type              X           Y           Z
 ---------------------------------------------------------------------
    1          6             0        0.081068    0.549093   -0.010971
    2          1             0        0.137317    1.192513   -0.896360
    3          1             0        0.138068    1.195075    0.877034
    4          6             0       -1.222722   -0.223843    0.006975
    5          1             0       -1.271411   -0.840353    0.904994
    6          1             0       -2.073092    0.461830    0.010029
    7          1             0       -1.312071   -0.877884   -0.863163
    8          8             0        1.156020   -0.394820   -0.017285
    9          1             0        1.982951    0.075881    0.129726
 ---------------------------------------------------------------------
 Rotational constants (GHZ):     35.1509402      9.3203488      8.1207252
 Standard basis: TZVP (5D, 7F)
 There are    93 symmetry adapted basis functions of A   symmetry.
 Integral buffers will be    131072 words long.
 Raffenetti 2 integral format.
 Two-electron integral symmetry is turned on.
    93 basis functions,   153 primitive gaussians,    96 cartesian basis functions
    13 alpha electrons       13 beta electrons
       nuclear repulsion energy        81.6474072684 Hartrees.
 NAtoms=    9 NActive=    9 NUniq=    9 SFac= 7.50D-01 NAtFMM=   80 NAOKFM=F Big=F
 One-electron integrals computed using PRISM.
 NBasis=    93 RedAO= T  NBF=    93
 NBsUse=    93 1.00D-06 NBFU=    93
 Initial guess read from the read-write file:
 Initial guess orbital symmetries:
       Occupied  (A) (A) (A) (A) (A) (A) (A) (A) (A) (A) (A) (A)
                 (A)
       Virtual   (A) (A) (A) (A) (A) (A) (A) (A) (A) (A) (A) (A)
                 (A) (A) (A) (A) (A) (A) (A) (A) (A) (A) (A) (A)
                 (A) (A) (A) (A) (A) (A) (A) (A) (A) (A) (A) (A)
                 (A) (A) (A) (A) (A) (A) (A) (A) (A) (A) (A) (A)
                 (A) (A) (A) (A) (A) (A) (A) (A) (A) (A) (A) (A)
                 (A) (A) (A) (A) (A) (A) (A) (A) (A) (A) (A) (A)
                 (A) (A) (A) (A) (A) (A) (A) (A)
 Harris functional with IExCor=  402 diagonalized for initial guess.
 ExpMin= 9.52D-02 ExpMax= 2.70D+04 ExpMxC= 9.22D+02 IAcc=3 IRadAn=         5 AccDes= 0.00D+00
 HarFok:  IExCor= 402 AccDes= 0.00D+00 IRadAn=         5 IDoV=1
 ScaDFX=  1.000000  1.000000  1.000000  1.000000
 Requested convergence on RMS density matrix=1.00D-08 within 128 cycles.
 Requested convergence on MAX density matrix=1.00D-06.
 Requested convergence on             energy=1.00D-06.
 No special actions if energy rises.
 Keep R1 integrals in memory in canonical form, NReq=    12836411.
 Integral accuracy reduced to 1.0D-05 until final iterations.
 Initial convergence to 1.0D-05 achieved.  Increase integral accuracy.
 SCF Done:  E(RB+HF-LYP) =  -155.103917354     A.U. after   10 cycles
             Convg  =    0.3144D-08             -V/T =  2.0049
             S**2   =   0.0000
 ***** Axes restored to original set *****
 -------------------------------------------------------------------
 Center     Atomic                   Forces (Hartrees/Bohr)
 Number     Number              X              Y              Z
 -------------------------------------------------------------------
    1          6          -0.000095966   -0.000529729   -0.001011526
    2          1           0.000658440    0.000760222    0.000803754
    3          1          -0.000020302   -0.000631746    0.001128418
    4          6          -0.000201091    0.000497398   -0.000240743
    5          1           0.000972961   -0.000751234   -0.000221434
    6          1          -0.000014712    0.000021959   -0.000005647
    7          1          -0.001105593    0.000799552   -0.000161903
    8          8          -0.000240199   -0.000182927   -0.001014236
    9          1           0.000046461    0.000016505    0.000723318
 -------------------------------------------------------------------
 Cartesian Forces:  Max     0.001128418 RMS     0.000611107

 GradGradGradGradGradGradGradGradGradGradGradGradGradGradGradGradGradGrad
 Berny optimization.
 Internal  Forces:  Max     0.002066129 RMS     0.000696197
 Search for a local minimum.
 Step number   2 out of a maximum of  80 on scan point     2 out of    37
 All quantities printed in internal units (Hartrees-Bohrs-Radians)
 Update second derivatives using D2CorX and points  1  2
 Trust test= 9.63D-01 RLast= 1.64D-01 DXMaxT set to 4.24D-01
     Eigenvalues ---    0.00573   0.04305   0.05707   0.05925   0.05996
     Eigenvalues ---    0.10635   0.11177   0.16000   0.16000   0.16000
     Eigenvalues ---    0.17843   0.21972   0.30941   0.33927   0.34310
     Eigenvalues ---    0.34547   0.34666   0.35023   0.40960   0.54862
     Eigenvalues --- 1000.000001000.000001000.000001000.000001000.00000
     Eigenvalues --- 1000.000001000.000001000.000001000.000001000.00000
     Eigenvalues --- 1000.000001000.000001000.00000
 RFO step:  Lambda=-8.71382845D-05.
 Quartic linear search produced a step of -0.01141.
 Iteration  1 RMS(Cart)=  0.00727131 RMS(Int)=  0.00004795
 Iteration  2 RMS(Cart)=  0.00004405 RMS(Int)=  0.00001879
 Iteration  3 RMS(Cart)=  0.00000000 RMS(Int)=  0.00001879
 Iteration  1 RMS(Cart)=  0.00000011 RMS(Int)=  0.00000009
 Variable       Old X    -DE/DX   Delta X   Delta X   Delta X     New X
                                 (Linear)    (Quad)   (Total)
    R1        2.07101   0.00107   0.00004   0.00290   0.00294   2.07395
    R2        2.07792  -0.00128  -0.00004  -0.00355  -0.00358   2.07434
    R3        2.86443  -0.00058  -0.00002  -0.00174  -0.00177   2.86266
    R4        2.70339   0.00025  -0.00001   0.00065   0.00064   2.70402
    R5        2.06049   0.00065   0.00002   0.00174   0.00176   2.06225
    R6        2.06429   0.00000   0.00000   0.00001   0.00001   2.06430
    R7        2.06395  -0.00070  -0.00002  -0.00189  -0.00191   2.06204
    R8        1.81943  -0.00014   0.00001  -0.00033  -0.00032   1.81911
    A1        1.88059   0.00003   0.00000  -0.00130  -0.00131   1.87929
    A2        1.93166  -0.00102   0.00073  -0.00934  -0.00861   1.92306
    A3        1.92330   0.00048   0.00004   0.00464   0.00470   1.92799
    A4        1.91197   0.00047  -0.00078   0.00493   0.00415   1.91612
    A5        1.93076  -0.00022   0.00001  -0.00068  -0.00067   1.93008
    A6        1.88590   0.00025  -0.00002   0.00169   0.00168   1.88759
    A7        1.91397   0.00192   0.00018   0.01279   0.01297   1.92694
    A8        1.92788   0.00002  -0.00001   0.00006   0.00002   1.92789
    A9        1.94581  -0.00207  -0.00018  -0.01363  -0.01381   1.93201
   A10        1.89425  -0.00058  -0.00002   0.00011   0.00006   1.89431
   A11        1.89010   0.00004   0.00000   0.00027   0.00032   1.89042
   A12        1.89065   0.00068   0.00002   0.00055   0.00053   1.89118
   A13        1.89877   0.00003  -0.00001   0.00023   0.00022   1.89899
    D1       -3.11903  -0.00004   0.00007  -0.00213  -0.00209  -3.12112
    D2       -1.03207   0.00047   0.00016   0.00613   0.00628  -1.02579
    D3        1.07103  -0.00004   0.00006  -0.00219  -0.00211   1.06892
    D4       -1.04783  -0.00033   0.00000  -0.00635  -0.00638  -1.05421
    D5        1.03913   0.00018   0.00008   0.00190   0.00199   1.04112
    D6       -3.14095  -0.00033  -0.00001  -0.00642  -0.00640   3.13583
    D7        1.05684  -0.00017  -0.00044  -0.00326  -0.00372   1.05313
    D8       -3.13938   0.00034  -0.00035   0.00500   0.00465  -3.13473
    D9       -1.03628  -0.00017  -0.00044  -0.00332  -0.00374  -1.04002
   D10        1.20361  -0.00007  -0.00092   0.00758   0.00666   1.21026
   D11       -0.87416  -0.00028  -0.00095   0.00667   0.00572  -0.86844
   D12       -2.96706  -0.00088   0.00000   0.00000   0.00000  -2.96706
         Item               Value     Threshold  Converged?
 Maximum Force            0.002066     0.000450     NO 
 RMS     Force            0.000673     0.000300     NO 
 Maximum Displacement     0.019676     0.001800     NO 
 RMS     Displacement     0.007277     0.001200     NO 
 Predicted change in Energy=-4.370588D-05
 GradGradGradGradGradGradGradGradGradGradGradGradGradGradGradGradGradGrad

                          Input orientation:                          
 ---------------------------------------------------------------------
 Center     Atomic     Atomic              Coordinates (Angstroms)
 Number     Number      Type              X           Y           Z
 ---------------------------------------------------------------------
    1          6             0       -0.080861    0.549626    0.022581
    2          1             0       -0.117187    1.203885    0.902980
    3          1             0       -0.151161    1.186245   -0.868880
    4          6             0        1.221722   -0.223371   -0.000762
    5          1             0        1.270662   -0.859841   -0.885882
    6          1             0        2.072188    0.461972   -0.018399
    7          1             0        1.309693   -0.857545    0.882848
    8          8             0       -1.157614   -0.392227    0.054398
    9          1             0       -1.985366    0.077837   -0.088885
 ---------------------------------------------------------------------
                    Distance matrix (angstroms):
                    1          2          3          4          5
     1  C    0.000000
     2  H    1.097487   0.000000
     3  H    1.097692   1.772273   0.000000
     4  C    1.514856   2.155570   2.150687   0.000000
     5  H    2.153722   3.063514   2.491655   1.091296   0.000000
     6  H    2.155222   2.488521   2.488206   1.092382   1.772614
     7  H    2.157274   2.507167   3.062633   1.091184   1.769162
     8  O    1.430908   2.085702   2.087334   2.385958   2.645622
     9  H    1.965235   2.396220   2.280629   3.222407   3.480829
                    6          7          8          9
     6  H    0.000000
     7  H    1.770527   0.000000
     8  O    3.341643   2.643947   0.000000
     9  H    4.076306   3.560424   0.962634   0.000000
 Stoichiometry    C2H6O
 Framework group  C1[X(C2H6O)]
 Deg. of freedom    21
 Full point group                 C1
 Largest Abelian subgroup         C1      NOp   1
 Largest concise Abelian subgroup C1      NOp   1
                         Standard orientation:                         
 ---------------------------------------------------------------------
 Center     Atomic     Atomic              Coordinates (Angstroms)
 Number     Number      Type              X           Y           Z
 ---------------------------------------------------------------------
    1          6             0        0.080350    0.548309   -0.008630
    2          1             0        0.126972    1.193186   -0.895443
    3          1             0        0.140461    1.194348    0.876778
    4          6             0       -1.222559   -0.224312    0.007854
    5          1             0       -1.281846   -0.851351    0.899052
    6          1             0       -2.073044    0.461233    0.008385
    7          1             0       -1.300430   -0.867822   -0.869935
    8          8             0        1.157224   -0.393898   -0.018003
    9          1             0        1.983352    0.077607    0.129843
 ---------------------------------------------------------------------
 Rotational constants (GHZ):     35.1983586      9.3148979      8.1188270
 Standard basis: TZVP (5D, 7F)
 There are    93 symmetry adapted basis functions of A   symmetry.
 Integral buffers will be    131072 words long.
 Raffenetti 2 integral format.
 Two-electron integral symmetry is turned on.
    93 basis functions,   153 primitive gaussians,    96 cartesian basis functions
    13 alpha electrons       13 beta electrons
       nuclear repulsion energy        81.6500626528 Hartrees.
 NAtoms=    9 NActive=    9 NUniq=    9 SFac= 7.50D-01 NAtFMM=   80 NAOKFM=F Big=F
 One-electron integrals computed using PRISM.
 NBasis=    93 RedAO= T  NBF=    93
 NBsUse=    93 1.00D-06 NBFU=    93
 Initial guess read from the read-write file:
 Initial guess orbital symmetries:
       Occupied  (A) (A) (A) (A) (A) (A) (A) (A) (A) (A) (A) (A)
                 (A)
       Virtual   (A) (A) (A) (A) (A) (A) (A) (A) (A) (A) (A) (A)
                 (A) (A) (A) (A) (A) (A) (A) (A) (A) (A) (A) (A)
                 (A) (A) (A) (A) (A) (A) (A) (A) (A) (A) (A) (A)
                 (A) (A) (A) (A) (A) (A) (A) (A) (A) (A) (A) (A)
                 (A) (A) (A) (A) (A) (A) (A) (A) (A) (A) (A) (A)
                 (A) (A) (A) (A) (A) (A) (A) (A) (A) (A) (A) (A)
                 (A) (A) (A) (A) (A) (A) (A) (A)
 Requested convergence on RMS density matrix=1.00D-08 within 128 cycles.
 Requested convergence on MAX density matrix=1.00D-06.
 Requested convergence on             energy=1.00D-06.
 No special actions if energy rises.
 Keep R1 integrals in memory in canonical form, NReq=    12836411.
 SCF Done:  E(RB+HF-LYP) =  -155.103966579     A.U. after    8 cycles
             Convg  =    0.3789D-08             -V/T =  2.0049
             S**2   =   0.0000
 ***** Axes restored to original set *****
 -------------------------------------------------------------------
 Center     Atomic                   Forces (Hartrees/Bohr)
 Number     Number              X              Y              Z
 -------------------------------------------------------------------
    1          6          -0.000107782   -0.000141696   -0.000598973
    2          1          -0.000033823    0.000118976    0.000157638
    3          1          -0.000069433   -0.000084131    0.000131867
    4          6          -0.000063518    0.000001375    0.000007513
    5          1           0.000217643   -0.000023997    0.000112505
    6          1          -0.000035946    0.000012099    0.000024339
    7          1          -0.000143583   -0.000050635    0.000118822
    8          8           0.000289675    0.000031532   -0.000661564
    9          1          -0.000053232    0.000136476    0.000707853
 -------------------------------------------------------------------
 Cartesian Forces:  Max     0.000707853 RMS     0.000244117

 GradGradGradGradGradGradGradGradGradGradGradGradGradGradGradGradGradGrad
 Berny optimization.
 Internal  Forces:  Max     0.000670058 RMS     0.000201892
 Search for a local minimum.
 Step number   3 out of a maximum of  80 on scan point     2 out of    37
 All quantities printed in internal units (Hartrees-Bohrs-Radians)
 Update second derivatives using D2CorX and points  1  2  3
 Trust test= 1.13D+00 RLast= 2.77D-02 DXMaxT set to 4.24D-01
     Eigenvalues ---    0.00575   0.04126   0.05726   0.05801   0.06058
     Eigenvalues ---    0.10584   0.11283   0.15798   0.16000   0.16000
     Eigenvalues ---    0.16476   0.21989   0.30978   0.33783   0.33943
     Eigenvalues ---    0.34547   0.34666   0.35392   0.41395   0.54870
     Eigenvalues --- 1000.000001000.000001000.000001000.000001000.00000
     Eigenvalues --- 1000.000001000.000001000.000001000.000001000.00000
     Eigenvalues --- 1000.000001000.000001000.00000
 RFO step:  Lambda=-2.35607066D-06.
 Quartic linear search produced a step of  0.14398.
 Iteration  1 RMS(Cart)=  0.00241175 RMS(Int)=  0.00000566
 Iteration  2 RMS(Cart)=  0.00000419 RMS(Int)=  0.00000357
 Iteration  3 RMS(Cart)=  0.00000000 RMS(Int)=  0.00000357
 Iteration  1 RMS(Cart)=  0.00000008 RMS(Int)=  0.00000007
 Variable       Old X    -DE/DX   Delta X   Delta X   Delta X     New X
                                 (Linear)    (Quad)   (Total)
    R1        2.07395   0.00020   0.00042   0.00029   0.00072   2.07466
    R2        2.07434  -0.00015  -0.00052  -0.00006  -0.00058   2.07376
    R3        2.86266   0.00001  -0.00025   0.00024  -0.00001   2.86265
    R4        2.70402  -0.00029   0.00009  -0.00087  -0.00078   2.70324
    R5        2.06225  -0.00007   0.00025  -0.00045  -0.00019   2.06206
    R6        2.06430  -0.00002   0.00000  -0.00007  -0.00007   2.06423
    R7        2.06204   0.00011  -0.00028   0.00062   0.00034   2.06238
    R8        1.81911   0.00001  -0.00005   0.00004   0.00000   1.81911
    A1        1.87929  -0.00002  -0.00019   0.00005  -0.00014   1.87915
    A2        1.92306  -0.00027  -0.00124   0.00052  -0.00072   1.92234
    A3        1.92799  -0.00003   0.00068  -0.00128  -0.00060   1.92739
    A4        1.91612   0.00036   0.00060   0.00097   0.00156   1.91768
    A5        1.93008  -0.00004  -0.00010  -0.00007  -0.00017   1.92992
    A6        1.88759   0.00001   0.00024  -0.00017   0.00007   1.88765
    A7        1.92694   0.00040   0.00187   0.00158   0.00345   1.93039
    A8        1.92789  -0.00007   0.00000  -0.00055  -0.00055   1.92734
    A9        1.93201  -0.00028  -0.00199  -0.00055  -0.00254   1.92947
   A10        1.89431  -0.00011   0.00001  -0.00017  -0.00017   1.89414
   A11        1.89042  -0.00005   0.00005  -0.00032  -0.00026   1.89016
   A12        1.89118   0.00011   0.00008  -0.00001   0.00006   1.89124
   A13        1.89899  -0.00007   0.00003  -0.00052  -0.00049   1.89850
    D1       -3.12112  -0.00008  -0.00030   0.00313   0.00283  -3.11829
    D2       -1.02579   0.00000   0.00090   0.00359   0.00449  -1.02130
    D3        1.06892  -0.00009  -0.00030   0.00286   0.00256   1.07148
    D4       -1.05421  -0.00005  -0.00092   0.00410   0.00318  -1.05103
    D5        1.04112   0.00003   0.00029   0.00456   0.00484   1.04597
    D6        3.13583  -0.00006  -0.00092   0.00383   0.00291   3.13875
    D7        1.05313   0.00012  -0.00054   0.00449   0.00395   1.05708
    D8       -3.13473   0.00020   0.00067   0.00495   0.00562  -3.12911
    D9       -1.04002   0.00011  -0.00054   0.00422   0.00368  -1.03633
   D10        1.21026  -0.00032   0.00096   0.00024   0.00120   1.21146
   D11       -0.86844  -0.00025   0.00082   0.00103   0.00186  -0.86659
   D12       -2.96706  -0.00067   0.00000   0.00000   0.00000  -2.96706
         Item               Value     Threshold  Converged?
 Maximum Force            0.000401     0.000450     YES
 RMS     Force            0.000121     0.000300     YES
 Maximum Displacement     0.007744     0.001800     NO 
 RMS     Displacement     0.002412     0.001200     NO 
 Predicted change in Energy=-1.973096D-06
 GradGradGradGradGradGradGradGradGradGradGradGradGradGradGradGradGradGrad

                          Input orientation:                          
 ---------------------------------------------------------------------
 Center     Atomic     Atomic              Coordinates (Angstroms)
 Number     Number      Type              X           Y           Z
 ---------------------------------------------------------------------
    1          6             0       -0.080878    0.549501    0.021555
    2          1             0       -0.116039    1.204324    0.902054
    3          1             0       -0.153254    1.185648   -0.869700
    4          6             0        1.221650   -0.223572   -0.001902
    5          1             0        1.274760   -0.859661   -0.886931
    6          1             0        2.071820    0.462167   -0.015812
    7          1             0        1.306394   -0.858304    0.881845
    8          8             0       -1.157379   -0.391919    0.056051
    9          1             0       -1.984999    0.078396   -0.087160
 ---------------------------------------------------------------------
                    Distance matrix (angstroms):
                    1          2          3          4          5
     1  C    0.000000
     2  H    1.097865   0.000000
     3  H    1.097386   1.772244   0.000000
     4  C    1.514851   2.155328   2.151589   0.000000
     5  H    2.156117   3.065098   2.494556   1.091195   0.000000
     6  H    2.154793   2.485961   2.490684   1.092346   1.772394
     7  H    2.155584   2.505626   3.062062   1.091364   1.769060
     8  O    1.430495   2.085210   2.086624   2.385683   2.650151
     9  H    1.964545   2.395678   2.278962   3.221965   3.485056
                    6          7          8          9
     6  H    0.000000
     7  H    1.770680   0.000000
     8  O    3.341011   2.640006   0.000000
     9  H    4.075556   3.556635   0.962632   0.000000
 Stoichiometry    C2H6O
 Framework group  C1[X(C2H6O)]
 Deg. of freedom    21
 Full point group                 C1
 Largest Abelian subgroup         C1      NOp   1
 Largest concise Abelian subgroup C1      NOp   1
                         Standard orientation:                         
 ---------------------------------------------------------------------
 Center     Atomic     Atomic              Coordinates (Angstroms)
 Number     Number      Type              X           Y           Z
 ---------------------------------------------------------------------
    1          6             0        0.080596    0.548138   -0.008191
    2          1             0        0.127138    1.192436   -0.895897
    3          1             0        0.142141    1.194804    0.876281
    4          6             0       -1.222540   -0.224095    0.008120
    5          1             0       -1.287076   -0.849600    0.899907
    6          1             0       -2.072448    0.462090    0.003225
    7          1             0       -1.296546   -0.869254   -0.869018
    8          8             0        1.156938   -0.394044   -0.018005
    9          1             0        1.982952    0.077618    0.129971
 ---------------------------------------------------------------------
 Rotational constants (GHZ):     35.2040575      9.3167540      8.1204951
 Standard basis: TZVP (5D, 7F)
 There are    93 symmetry adapted basis functions of A   symmetry.
 Integral buffers will be    131072 words long.
 Raffenetti 2 integral format.
 Two-electron integral symmetry is turned on.
    93 basis functions,   153 primitive gaussians,    96 cartesian basis functions
    13 alpha electrons       13 beta electrons
       nuclear repulsion energy        81.6573706309 Hartrees.
 NAtoms=    9 NActive=    9 NUniq=    9 SFac= 7.50D-01 NAtFMM=   80 NAOKFM=F Big=F
 One-electron integrals computed using PRISM.
 NBasis=    93 RedAO= T  NBF=    93
 NBsUse=    93 1.00D-06 NBFU=    93
 Initial guess read from the read-write file:
 Initial guess orbital symmetries:
       Occupied  (A) (A) (A) (A) (A) (A) (A) (A) (A) (A) (A) (A)
                 (A)
       Virtual   (A) (A) (A) (A) (A) (A) (A) (A) (A) (A) (A) (A)
                 (A) (A) (A) (A) (A) (A) (A) (A) (A) (A) (A) (A)
                 (A) (A) (A) (A) (A) (A) (A) (A) (A) (A) (A) (A)
                 (A) (A) (A) (A) (A) (A) (A) (A) (A) (A) (A) (A)
                 (A) (A) (A) (A) (A) (A) (A) (A) (A) (A) (A) (A)
                 (A) (A) (A) (A) (A) (A) (A) (A) (A) (A) (A) (A)
                 (A) (A) (A) (A) (A) (A) (A) (A)
 Requested convergence on RMS density matrix=1.00D-08 within 128 cycles.
 Requested convergence on MAX density matrix=1.00D-06.
 Requested convergence on             energy=1.00D-06.
 No special actions if energy rises.
 Keep R1 integrals in memory in canonical form, NReq=    12836411.
 SCF Done:  E(RB+HF-LYP) =  -155.103968670     A.U. after    7 cycles
             Convg  =    0.4181D-08             -V/T =  2.0049
             S**2   =   0.0000
 ***** Axes restored to original set *****
 -------------------------------------------------------------------
 Center     Atomic                   Forces (Hartrees/Bohr)
 Number     Number              X              Y              Z
 -------------------------------------------------------------------
    1          6          -0.000049534   -0.000065266   -0.000378016
    2          1           0.000044506    0.000027540   -0.000026409
    3          1           0.000017840    0.000008413   -0.000039704
    4          6           0.000006907    0.000055587    0.000387729
    5          1          -0.000003689    0.000033668    0.000018941
    6          1           0.000019469   -0.000001945    0.000026858
    7          1          -0.000009209   -0.000030472    0.000014417
    8          8           0.000063774   -0.000107719   -0.000713021
    9          1          -0.000090065    0.000080195    0.000709205
 -------------------------------------------------------------------
 Cartesian Forces:  Max     0.000713021 RMS     0.000223929

 GradGradGradGradGradGradGradGradGradGradGradGradGradGradGradGradGradGrad
 Berny optimization.
 Internal  Forces:  Max     0.000629860 RMS     0.000154723
 Search for a local minimum.
 Step number   4 out of a maximum of  80 on scan point     2 out of    37
 All quantities printed in internal units (Hartrees-Bohrs-Radians)
 Update second derivatives using D2CorX and points  1  2  3  4
 Trust test= 1.06D+00 RLast= 1.29D-02 DXMaxT set to 4.24D-01
     Eigenvalues ---    0.00468   0.04269   0.05737   0.05750   0.06116
     Eigenvalues ---    0.10538   0.11529   0.15776   0.15999   0.16238
     Eigenvalues ---    0.17247   0.22059   0.30972   0.33841   0.34141
     Eigenvalues ---    0.34577   0.34685   0.35775   0.41981   0.54872
     Eigenvalues --- 1000.000001000.000001000.000001000.000001000.00000
     Eigenvalues --- 1000.000001000.000001000.000001000.000001000.00000
     Eigenvalues --- 1000.000001000.000001000.00000
 RFO step:  Lambda=-3.99959227D-07.
 Quartic linear search produced a step of  0.06678.
 Iteration  1 RMS(Cart)=  0.00129526 RMS(Int)=  0.00000100
 Iteration  2 RMS(Cart)=  0.00000101 RMS(Int)=  0.00000007
 Iteration  3 RMS(Cart)=  0.00000000 RMS(Int)=  0.00000007
 Iteration  1 RMS(Cart)=  0.00000004 RMS(Int)=  0.00000004
 Variable       Old X    -DE/DX   Delta X   Delta X   Delta X     New X
                                 (Linear)    (Quad)   (Total)
    R1        2.07466  -0.00001   0.00005   0.00002   0.00006   2.07473
    R2        2.07376   0.00004  -0.00004   0.00008   0.00004   2.07380
    R3        2.86265  -0.00002   0.00000  -0.00010  -0.00010   2.86256
    R4        2.70324   0.00004  -0.00005   0.00008   0.00003   2.70327
    R5        2.06206  -0.00004  -0.00001  -0.00010  -0.00011   2.06194
    R6        2.06423   0.00001   0.00000   0.00004   0.00004   2.06427
    R7        2.06238   0.00003   0.00002   0.00008   0.00011   2.06249
    R8        1.81911   0.00001   0.00000   0.00002   0.00002   1.81913
    A1        1.87915   0.00001  -0.00001  -0.00013  -0.00014   1.87901
    A2        1.92234  -0.00031  -0.00005  -0.00029  -0.00034   1.92200
    A3        1.92739   0.00003  -0.00004   0.00037   0.00033   1.92773
    A4        1.91768   0.00024   0.00010  -0.00027  -0.00016   1.91751
    A5        1.92992   0.00000  -0.00001   0.00010   0.00009   1.93001
    A6        1.88765   0.00003   0.00000   0.00021   0.00021   1.88787
    A7        1.93039  -0.00002   0.00023   0.00006   0.00029   1.93068
    A8        1.92734   0.00002  -0.00004   0.00018   0.00014   1.92748
    A9        1.92947  -0.00001  -0.00017  -0.00023  -0.00040   1.92907
   A10        1.89414   0.00000  -0.00001   0.00006   0.00005   1.89418
   A11        1.89016   0.00000  -0.00002  -0.00003  -0.00005   1.89011
   A12        1.89124  -0.00001   0.00000  -0.00004  -0.00004   1.89120
   A13        1.89850   0.00005  -0.00003   0.00035   0.00032   1.89882
    D1       -3.11829  -0.00002   0.00019   0.00270   0.00289  -3.11540
    D2       -1.02130  -0.00002   0.00030   0.00293   0.00323  -1.01807
    D3        1.07148  -0.00002   0.00017   0.00285   0.00302   1.07450
    D4       -1.05103  -0.00006   0.00021   0.00220   0.00242  -1.04861
    D5        1.04597  -0.00005   0.00032   0.00243   0.00275   1.04872
    D6        3.13875  -0.00005   0.00019   0.00235   0.00254   3.14129
    D7        1.05708   0.00010   0.00026   0.00229   0.00256   1.05963
    D8       -3.12911   0.00011   0.00038   0.00252   0.00290  -3.12621
    D9       -1.03633   0.00011   0.00025   0.00244   0.00268  -1.03365
   D10        1.21146  -0.00029   0.00008   0.00000   0.00008   1.21155
   D11       -0.86659  -0.00032   0.00012  -0.00014  -0.00002  -0.86660
   D12       -2.96706  -0.00063   0.00000   0.00000   0.00000  -2.96706
         Item               Value     Threshold  Converged?
 Maximum Force            0.000055     0.000450     YES
 RMS     Force            0.000023     0.000300     YES
 Maximum Displacement     0.003476     0.001800     NO 
 RMS     Displacement     0.001295     0.001200     NO 
 Predicted change in Energy=-2.076934D-07
 GradGradGradGradGradGradGradGradGradGradGradGradGradGradGradGradGradGrad

                          Input orientation:                          
 ---------------------------------------------------------------------
 Center     Atomic     Atomic              Coordinates (Angstroms)
 Number     Number      Type              X           Y           Z
 ---------------------------------------------------------------------
    1          6             0       -0.080915    0.549429    0.021251
    2          1             0       -0.115297    1.205200    0.901118
    3          1             0       -0.153507    1.184818   -0.870551
    4          6             0        1.221643   -0.223499   -0.002047
    5          1             0        1.275868   -0.858512   -0.887707
    6          1             0        2.071894    0.462206   -0.013972
    7          1             0        1.305207   -0.859355    0.881075
    8          8             0       -1.157512   -0.391857    0.057054
    9          1             0       -1.985306    0.078151   -0.086221
 ---------------------------------------------------------------------
                    Distance matrix (angstroms):
                    1          2          3          4          5
     1  C    0.000000
     2  H    1.097900   0.000000
     3  H    1.097406   1.772198   0.000000
     4  C    1.514800   2.155063   2.151440   0.000000
     5  H    2.156238   3.064986   2.493713   1.091134   0.000000
     6  H    2.154863   2.484599   2.491647   1.092364   1.772389
     7  H    2.155297   2.506117   3.061810   1.091421   1.769025
     8  O    1.430511   2.085486   2.086716   2.385836   2.651730
     9  H    1.964779   2.396250   2.279336   3.222204   3.486398
                    6          7          8          9
     6  H    0.000000
     7  H    1.770717   0.000000
     8  O    3.341187   2.638664   0.000000
     9  H    4.075977   3.555567   0.962642   0.000000
 Stoichiometry    C2H6O
 Framework group  C1[X(C2H6O)]
 Deg. of freedom    21
 Full point group                 C1
 Largest Abelian subgroup         C1      NOp   1
 Largest concise Abelian subgroup C1      NOp   1
                         Standard orientation:                         
 ---------------------------------------------------------------------
 Center     Atomic     Atomic              Coordinates (Angstroms)
 Number     Number      Type              X           Y           Z
 ---------------------------------------------------------------------
    1          6             0        0.080542    0.548054   -0.008162
    2          1             0        0.126595    1.192518   -0.895816
    3          1             0        0.141897    1.194767    0.876315
    4          6             0       -1.222566   -0.224125    0.008166
    5          1             0       -1.288527   -0.847751    0.901091
    6          1             0       -2.072583    0.461930    0.000337
    7          1             0       -1.295005   -0.871190   -0.867767
    8          8             0        1.157075   -0.393934   -0.018015
    9          1             0        1.983166    0.077621    0.129934
 ---------------------------------------------------------------------
 Rotational constants (GHZ):     35.2094582      9.3156510      8.1199072
 Standard basis: TZVP (5D, 7F)
 There are    93 symmetry adapted basis functions of A   symmetry.
 Integral buffers will be    131072 words long.
 Raffenetti 2 integral format.
 Two-electron integral symmetry is turned on.
    93 basis functions,   153 primitive gaussians,    96 cartesian basis functions
    13 alpha electrons       13 beta electrons
       nuclear repulsion energy        81.6561761630 Hartrees.
 NAtoms=    9 NActive=    9 NUniq=    9 SFac= 7.50D-01 NAtFMM=   80 NAOKFM=F Big=F
 One-electron integrals computed using PRISM.
 NBasis=    93 RedAO= T  NBF=    93
 NBsUse=    93 1.00D-06 NBFU=    93
 Initial guess read from the read-write file:
 Initial guess orbital symmetries:
       Occupied  (A) (A) (A) (A) (A) (A) (A) (A) (A) (A) (A) (A)
                 (A)
       Virtual   (A) (A) (A) (A) (A) (A) (A) (A) (A) (A) (A) (A)
                 (A) (A) (A) (A) (A) (A) (A) (A) (A) (A) (A) (A)
                 (A) (A) (A) (A) (A) (A) (A) (A) (A) (A) (A) (A)
                 (A) (A) (A) (A) (A) (A) (A) (A) (A) (A) (A) (A)
                 (A) (A) (A) (A) (A) (A) (A) (A) (A) (A) (A) (A)
                 (A) (A) (A) (A) (A) (A) (A) (A) (A) (A) (A) (A)
                 (A) (A) (A) (A) (A) (A) (A) (A)
 Requested convergence on RMS density matrix=1.00D-08 within 128 cycles.
 Requested convergence on MAX density matrix=1.00D-06.
 Requested convergence on             energy=1.00D-06.
 No special actions if energy rises.
 Keep R1 integrals in memory in canonical form, NReq=    12836411.
 SCF Done:  E(RB+HF-LYP) =  -155.103968931     A.U. after    7 cycles
             Convg  =    0.1979D-08             -V/T =  2.0049
             S**2   =   0.0000
 ***** Axes restored to original set *****
 -------------------------------------------------------------------
 Center     Atomic                   Forces (Hartrees/Bohr)
 Number     Number              X              Y              Z
 -------------------------------------------------------------------
    1          6          -0.000047733    0.000019347   -0.000404845
    2          1          -0.000005182   -0.000004759   -0.000026968
    3          1          -0.000004746    0.000006099   -0.000029734
    4          6           0.000011291   -0.000005181    0.000463218
    5          1          -0.000008867    0.000006780   -0.000009147
    6          1          -0.000003203   -0.000001033    0.000013972
    7          1           0.000012375   -0.000012018   -0.000007939
    8          8           0.000105118   -0.000111796   -0.000703540
    9          1          -0.000059052    0.000102561    0.000704983
 -------------------------------------------------------------------
 Cartesian Forces:  Max     0.000704983 RMS     0.000228789

 GradGradGradGradGradGradGradGradGradGradGradGradGradGradGradGradGradGrad
 Berny optimization.
 Internal  Forces:  Max     0.000624510 RMS     0.000152287
 Search for a local minimum.
 Step number   5 out of a maximum of  80 on scan point     2 out of    37
 All quantities printed in internal units (Hartrees-Bohrs-Radians)
 Update second derivatives using D2CorX and points  1  2  3  4  5

 Trust test= 1.26D+00 RLast= 8.41D-03 DXMaxT set to 4.24D-01
     Eigenvalues ---    0.00281   0.04277   0.05749   0.05805   0.06274
     Eigenvalues ---    0.10659   0.11743   0.15998   0.16008   0.17049
     Eigenvalues ---    0.17682   0.22759   0.31165   0.33922   0.34566
     Eigenvalues ---    0.34660   0.34769   0.35407   0.43222   0.54921
     Eigenvalues --- 1000.000001000.000001000.000001000.000001000.00000
     Eigenvalues --- 1000.000001000.000001000.000001000.000001000.00000
     Eigenvalues --- 1000.000001000.000001000.00000
 RFO step:  Lambda=-8.03842357D-08.
 Quartic linear search produced a step of  0.37442.
 Iteration  1 RMS(Cart)=  0.00090963 RMS(Int)=  0.00000047
 Iteration  2 RMS(Cart)=  0.00000049 RMS(Int)=  0.00000001
 Iteration  1 RMS(Cart)=  0.00000001 RMS(Int)=  0.00000001
 Variable       Old X    -DE/DX   Delta X   Delta X   Delta X     New X
                                 (Linear)    (Quad)   (Total)
    R1        2.07473  -0.00002   0.00002  -0.00007  -0.00005   2.07468
    R2        2.07380   0.00003   0.00001   0.00007   0.00008   2.07388
    R3        2.86256   0.00001  -0.00004   0.00005   0.00001   2.86257
    R4        2.70327  -0.00003   0.00001  -0.00012  -0.00011   2.70317
    R5        2.06194   0.00000  -0.00004   0.00004   0.00000   2.06194
    R6        2.06427   0.00000   0.00001  -0.00002  -0.00001   2.06426
    R7        2.06249   0.00000   0.00004  -0.00002   0.00002   2.06251
    R8        1.81913   0.00000   0.00001  -0.00001  -0.00001   1.81912
    A1        1.87901   0.00000  -0.00005   0.00003  -0.00002   1.87900
    A2        1.92200  -0.00026  -0.00013   0.00025   0.00012   1.92212
    A3        1.92773   0.00001   0.00012  -0.00006   0.00007   1.92779
    A4        1.91751   0.00027  -0.00006  -0.00002  -0.00008   1.91744
    A5        1.93001   0.00000   0.00003  -0.00005  -0.00002   1.92999
    A6        1.88787  -0.00002   0.00008  -0.00015  -0.00007   1.88779
    A7        1.93068  -0.00002   0.00011  -0.00011   0.00000   1.93069
    A8        1.92748   0.00000   0.00005  -0.00007  -0.00002   1.92747
    A9        1.92907   0.00003  -0.00015   0.00020   0.00006   1.92913
   A10        1.89418   0.00001   0.00002   0.00003   0.00005   1.89423
   A11        1.89011   0.00000  -0.00002  -0.00002  -0.00003   1.89008
   A12        1.89120  -0.00001  -0.00001  -0.00005  -0.00006   1.89114
   A13        1.89882  -0.00001   0.00012  -0.00014  -0.00002   1.89880
    D1       -3.11540  -0.00005   0.00108   0.00092   0.00201  -3.11340
    D2       -1.01807  -0.00005   0.00121   0.00085   0.00206  -1.01601
    D3        1.07450  -0.00005   0.00113   0.00088   0.00201   1.07651
    D4       -1.04861  -0.00004   0.00090   0.00111   0.00201  -1.04660
    D5        1.04872  -0.00004   0.00103   0.00103   0.00207   1.05079
    D6        3.14129  -0.00004   0.00095   0.00106   0.00202  -3.13988
    D7        1.05963   0.00011   0.00096   0.00094   0.00190   1.06153
    D8       -3.12621   0.00010   0.00108   0.00087   0.00195  -3.12426
[...]
           D6         178.48504 178.46379 178.52371 178.75370 179.01085
           D7          61.78915  61.24414  60.78548  60.35392  59.96796
           D8        -179.06282-179.52282-179.80582 179.95436 179.85619
           D9         -58.79808 -59.39398 -59.96798 -60.38530 -60.76231
           D10       -151.50947-141.77158-131.91807-122.06981-112.21223
           D11         92.70002 102.42578 112.18206 122.05859 131.92525
           D12        -29.99989 -19.99984 -10.00002   0.00010   9.99991
                          21        22        23        24        25
     EIGENVALUES --  -155.10247-155.10305-155.10360-155.10400-155.10415
           R1           1.09671   1.09753   1.09793   1.09799   1.09778
           R2           1.09247   1.09172   1.09115   1.09092   1.09086
           R3           1.51958   1.51993   1.52037   1.52095   1.52143
           R4           1.43072   1.42963   1.42867   1.42805   1.42808
           R5           1.09275   1.09224   1.09197   1.09165   1.09145
           R6           1.09233   1.09251   1.09274   1.09295   1.09319
           R7           1.09418   1.09446   1.09442   1.09435   1.09406
           R8           0.96235   0.96291   0.96338   0.96377   0.96372
           A1         107.46081 107.41260 107.39536 107.34602 107.28083
           A2         109.64807 109.64705 109.74434 109.92957 110.17579
           A3         109.17068 109.66759 110.06391 110.38136 110.55606
           A4         110.51321 110.65909 110.65388 110.56055 110.38223
           A5         106.67651 106.13491 105.71045 105.36680 105.21762
           A6         113.17802 113.11964 113.06293 113.02668 112.97633
           A7         111.11508 111.07182 110.98493 110.84331 110.67336
           A8         110.74065 110.75891 110.74621 110.74008 110.72053
           A9         110.92937 110.92225 110.98647 111.05373 111.16043
           A10        108.04090 108.23703 108.32712 108.43979 108.47161
           A11        108.39398 108.33065 108.25341 108.20077 108.15610
           A12        107.48791 107.38889 107.41451 107.44064 107.54227
           A13        108.70328 108.51563 108.34610 108.34310 108.37536
           D1        -178.45156-178.52121-178.66131-178.88694-179.05912
           D2         -58.37038 -58.20936 -58.30209 -58.48382 -58.74119
           D3          60.89487  60.93923  60.91191  60.80260  60.72942
           D4         -60.17321 -60.21410 -60.31814 -60.54654 -60.75602
           D5          59.90798  60.09775  60.04108  59.85658  59.56191
           D6         179.17322 179.24635 179.25508 179.14299 179.03252
           D7          59.39686  58.72720  58.04161  57.29003  56.73935
           D8         179.47804 179.03905 178.40083 177.69315 177.05728
           D9         -61.25672 -61.81235 -62.38517 -63.02044 -63.47212
           D10       -102.41792 -92.74032 -83.12047 -73.57446 -63.99319
           D11        141.74802 151.52406 161.19818 170.83420-179.51109
           D12         19.99989  29.99987  39.99985  49.99991  59.99983
                          26        27        28        29        30
     EIGENVALUES --  -155.10402-155.10367-155.10320-155.10274-155.10241
           R1           1.09726   1.09665   1.09595   1.09538   1.09503
           R2           1.09105   1.09145   1.09206   1.09286   1.09375
           R3           1.52176   1.52183   1.52151   1.52087   1.51988
           R4           1.42871   1.42988   1.43134   1.43282   1.43393
           R5           1.09126   1.09120   1.09116   1.09122   1.09131
           R6           1.09338   1.09353   1.09360   1.09361   1.09350
           R7           1.09377   1.09334   1.09298   1.09253   1.09216
           R8           0.96338   0.96274   0.96196   0.96115   0.96056
           A1         107.23452 107.17771 107.15770 107.14795 107.18762
           A2         110.39500 110.56479 110.62995 110.58979 110.44676
           A3         110.69098 110.74285 110.77259 110.76018 110.73941
           A4         110.16360 109.98113 109.85807 109.84305 109.90564
           A5         105.22096 105.44241 105.86028 106.46772 107.20661
           A6         112.86984 112.66798 112.32399 111.83932 111.21902
           A7         110.52177 110.38346 110.29385 110.24408 110.23731
           A8         110.69123 110.66601 110.64269 110.62997 110.61678
           A9         111.24239 111.28865 111.28264 111.22111 111.12604
           A10        108.47484 108.44634 108.40326 108.34532 108.30477
           A11        108.13636 108.12912 108.12480 108.12786 108.11418
           A12        107.66350 107.82208 107.99309 108.17628 108.34946
           A13        108.52667 108.71100 108.93372 109.10169 109.23170
           D1        -179.24173-179.39294-179.64064-179.94263 179.59754
           D2         -59.03854 -59.33212 -59.70684 -60.12141 -60.64455
           D3          60.61870  60.53834  60.35953  60.12667  59.75002
           D4         -60.99538 -61.22526 -61.53401 -61.88178 -62.34138
           D5          59.20781  58.83556  58.39979  57.93944  57.41653
           D6         178.86504 178.70602 178.46616 178.18752 177.81111
           D7          56.29057  56.09086  56.00907  56.10679  56.21910
           D8         176.49376 176.15168 175.94287 175.92802 175.97701
           D9         -63.84900 -63.97786 -63.99076 -63.82391 -63.62841
           D10        -54.30580 -44.41853 -34.27146 -23.85505 -13.21118
           D11       -169.83618-160.02927-150.10552-140.01339-129.82932
           D12         69.99983  79.99990  89.99984  99.99985 109.99982
                          31        32        33        34        35
     EIGENVALUES --  -155.10231-155.10245-155.10279-155.10324-155.10367
           R1           1.09495   1.09522   1.09567   1.09627   1.09699
           R2           1.09476   1.09567   1.09655   1.09723   1.09765
           R3           1.51880   1.51763   1.51664   1.51578   1.51518
           R4           1.43447   1.43431   1.43352   1.43245   1.43126
           R5           1.09141   1.09157   1.09155   1.09162   1.09153
           R6           1.09340   1.09310   1.09300   1.09266   1.09253
           R7           1.09173   1.09149   1.09116   1.09112   1.09101
           R8           0.96027   0.96041   0.96086   0.96149   0.96219
           A1         107.24620 107.34218 107.43953 107.54229 107.60433
           A2         110.23865 110.02611 109.85938 109.76783 109.78533
           A3         110.69405 110.64893 110.60824 110.57865 110.59102
           A4         110.04058 110.16580 110.26821 110.29088 110.24090
           A5         107.99318 108.75711 109.40661 109.90080 110.26806
           A6         110.54560 109.85911 109.24251 108.75678 108.35436
           A7         110.26611 110.31049 110.36604 110.42933 110.47478
           A8         110.60443 110.57752 110.54843 110.50974 110.46445
           A9         111.00089 110.89246 110.78558 110.71176 110.66188
           A10        108.24397 108.25089 108.20183 108.25289 108.27826
           A11        108.14796 108.11701 108.21728 108.20160 108.28046
           A12        108.48914 108.60781 108.64067 108.65716 108.60516
           A13        109.25286 109.22868 109.12180 108.97408 108.90312
           D1         179.18512 178.76538 178.64895 178.73596 179.17585
           D2         -61.12204 -61.52183 -61.68227 -61.51577 -61.04412
           D3          59.35734  59.01727  58.80835  58.92149  59.26560
           D4         -62.72584 -63.08104 -63.11770 -62.94696 -62.45056
           D5          56.96700  56.63175  56.55109  56.80132  57.32947
           D6         177.44638 177.17085 177.04170 177.23858 177.63918
           D7          56.47436  56.71158  57.15165  57.63854  58.30255
           D8         176.16720 176.42437 176.82043 177.38681 178.08258
           D9         -63.35341 -63.03653 -62.68895 -62.17593 -61.60771
           D10         -2.44489   8.31742  18.95707  29.40117  39.62702
           D11       -119.56850-109.35290 -99.20382 -89.17439 -79.26388
           D12        119.99988 129.99987 139.99984 149.99981 159.99985
                          36        37
     EIGENVALUES --  -155.10397-155.10408
           R1           1.09743   1.09778
           R2           1.09787   1.09781
           R3           1.51477   1.51466
           R4           1.43048   1.43017
           R5           1.09141   1.09127
           R6           1.09236   1.09232
           R7           1.09115   1.09127
           R8           0.96263   0.96282
           A1         107.67494 107.67958
           A2         109.85718 109.99058
           A3         110.57464 110.54823
           A4         110.12912 109.98982
           A5         110.43832 110.55447
           A6         108.17164 108.08417
           A7         110.52927 110.57651
           A8         110.44260 110.42371
           A9         110.61602 110.57701
           A10        108.35473 108.44184
           A11        108.29421 108.30597
           A12        108.52919 108.44155
           A13        108.76621 108.76819
           D1         179.84308-179.24413
           D2         -60.26052 -59.22070
           D3          59.90997  60.80269
           D4         -61.72069 -60.80559
           D5          58.17571  59.21783
           D6         178.34620 179.24122
           D7          59.05939  59.97872
           D8         178.95579-179.99785
           D9         -60.87372 -59.97447
           D10         49.66366  59.57091
           D11        -69.41261 -59.56836
           D12        169.99990 179.99987
                          Input orientation:                          
 ---------------------------------------------------------------------
 Center     Atomic     Atomic              Coordinates (Angstroms)
 Number     Number      Type              X           Y           Z
 ---------------------------------------------------------------------
    1          6             0       -0.076718    0.533285    0.123106
    2          1             0       -0.059184    0.955737    1.136192
    3          1             0       -0.191891    1.365709   -0.583286
    4          6             0        1.216970   -0.204621   -0.152679
    5          1             0        1.215220   -0.617404   -1.162868
    6          1             0        2.069382    0.471730   -0.057243
    7          1             0        1.347707   -1.026514    0.553206
    8          8             0       -1.155601   -0.395344   -0.014937
    9          1             0       -1.983810    0.064003    0.158510
 ---------------------------------------------------------------------
                    Distance matrix (angstroms):
                    1          2          3          4          5
     1  C    0.000000
     2  H    1.097778   0.000000
     3  H    1.097809   1.772651   0.000000
     4  C    1.514659   2.153181   2.153195   0.000000
     5  H    2.155672   3.063422   2.499723   1.091272   0.000000
     6  H    2.154545   2.487840   2.487826   1.092322   1.771500
     7  H    2.155678   2.499707   3.063447   1.091271   1.769134
     8  O    1.430173   2.086300   2.086401   2.384207   2.643454
     9  H    1.964301   2.335645   2.335738   3.227071   3.527626
                    6          7          8          9
     6  H    0.000000
     7  H    1.771496   0.000000
     8  O    3.339779   2.643428   0.000000
     9  H    4.079358   3.527608   0.962816   0.000000
 Stoichiometry    C2H6O
 Framework group  C1[X(C2H6O)]
 Deg. of freedom    21
 Full point group                 C1
 Largest Abelian subgroup         C1      NOp   1
 Largest concise Abelian subgroup C1      NOp   1
                         Standard orientation:                         
 ---------------------------------------------------------------------
 Center     Atomic     Atomic              Coordinates (Angstroms)
 Number     Number      Type              X           Y           Z
 ---------------------------------------------------------------------
    1          6             0       -0.080954    0.548095    0.000005
    2          1             0       -0.134947    1.193527    0.886355
    3          1             0       -0.134875    1.193656   -0.886296
    4          6             0        1.222393   -0.223579   -0.000001
    5          1             0        1.292004   -0.858812   -0.884595
    6          1             0        2.071913    0.463066    0.000047
    7          1             0        1.291975   -0.858891    0.884538
    8          8             0       -1.155602   -0.395583   -0.000008
    9          1             0       -1.989890    0.085018   -0.000003
 ---------------------------------------------------------------------
 Rotational constants (GHZ):     35.2224891      9.3249274      8.1219898

 **********************************************************************

            Population analysis using the SCF density.

 **********************************************************************

 Orbital symmetries:
       Occupied  (A) (A) (A) (A) (A) (A) (A) (A) (A) (A) (A) (A)
                 (A)
       Virtual   (A) (A) (A) (A) (A) (A) (A) (A) (A) (A) (A) (A)
                 (A) (A) (A) (A) (A) (A) (A) (A) (A) (A) (A) (A)
                 (A) (A) (A) (A) (A) (A) (A) (A) (A) (A) (A) (A)
                 (A) (A) (A) (A) (A) (A) (A) (A) (A) (A) (A) (A)
                 (A) (A) (A) (A) (A) (A) (A) (A) (A) (A) (A) (A)
                 (A) (A) (A) (A) (A) (A) (A) (A) (A) (A) (A) (A)
                 (A) (A) (A) (A) (A) (A) (A) (A)
 The electronic state is 1-A.
 Alpha  occ. eigenvalues --  -19.12336 -10.21921 -10.16052  -1.02049  -0.75294
 Alpha  occ. eigenvalues --   -0.61434  -0.52098  -0.46910  -0.40620  -0.38688
 Alpha  occ. eigenvalues --   -0.36900  -0.33700  -0.27744
 Alpha virt. eigenvalues --    0.02582   0.05671   0.08992   0.10025   0.11363
 Alpha virt. eigenvalues --    0.13532   0.14982   0.17382   0.20424   0.23240
 Alpha virt. eigenvalues --    0.26850   0.29235   0.31845   0.36938   0.39799
 Alpha virt. eigenvalues --    0.41899   0.43123   0.44921   0.47513   0.49213
 Alpha virt. eigenvalues --    0.49653   0.53160   0.55030   0.57277   0.67115
 Alpha virt. eigenvalues --    0.83085   1.14644   1.17046   1.25648   1.26050
 Alpha virt. eigenvalues --    1.29289   1.31904   1.34294   1.35239   1.40798
 Alpha virt. eigenvalues --    1.45149   1.45688   1.50958   1.54077   1.62442
 Alpha virt. eigenvalues --    1.65813   1.72142   1.77087   1.79285   1.79982
 Alpha virt. eigenvalues --    1.85709   1.86757   1.93758   2.05860   2.10413
 Alpha virt. eigenvalues --    2.17864   2.21229   2.29105   2.29394   2.35351
 Alpha virt. eigenvalues --    2.40048   2.49524   2.54800   2.58923   2.59408
 Alpha virt. eigenvalues --    2.60415   2.63749   2.69292   2.71881   2.88757
 Alpha virt. eigenvalues --    2.93336   2.94084   3.05382   3.07368   3.16712
 Alpha virt. eigenvalues --    3.21685   3.31486   3.32234   3.37098   3.37645
 Alpha virt. eigenvalues --    3.95201   4.30695  21.85928  22.02166  43.42688
          Condensed to atoms (all electrons):
              1          2          3          4          5          6
     1  C    4.858271   0.410526   0.410494   0.247329  -0.035347  -0.021664
     2  H    0.410526   0.678715  -0.073184  -0.051283   0.012032   0.000410
     3  H    0.410494  -0.073184   0.678741  -0.051278  -0.013489   0.000410
     4  C    0.247329  -0.051283  -0.051278   5.093531   0.395251   0.367207
     5  H   -0.035347   0.012032  -0.013489   0.395251   0.574962  -0.027150
     6  H   -0.021664   0.000410   0.000410   0.367207  -0.027150   0.599144
     7  H   -0.035349  -0.013488   0.012032   0.395252  -0.030515  -0.027151
     8  O    0.288272  -0.053403  -0.053391  -0.101089   0.006955   0.006829
     9  H   -0.039322  -0.005140  -0.005141   0.016415  -0.000511  -0.001068
              7          8          9
     1  C   -0.035349   0.288272  -0.039322
     2  H   -0.013488  -0.053403  -0.005140
     3  H    0.012032  -0.053391  -0.005141
     4  C    0.395252  -0.101089   0.016415
     5  H   -0.030515   0.006955  -0.000511
     6  H   -0.027151   0.006829  -0.001068
     7  H    0.574960   0.006956  -0.000511
     8  O    0.006956   8.002886   0.292809
     9  H   -0.000511   0.292809   0.479382
 Mulliken atomic charges:
              1
     1  C   -0.083209
     2  H    0.094816
     3  H    0.094806
     4  C   -0.311334
     5  H    0.117813
     6  H    0.103032
     7  H    0.117813
     8  O   -0.396822
     9  H    0.263085
 Sum of Mulliken charges=   0.00000
 Atomic charges with hydrogens summed into heavy atoms:
              1
     1  C    0.106413
     2  H    0.000000
     3  H    0.000000
     4  C    0.027324
     5  H    0.000000
     6  H    0.000000
     7  H    0.000000
     8  O   -0.133737
     9  H    0.000000
 Sum of Mulliken charges=   0.00000
 Electronic spatial extent (au):  <R**2>=   194.8148
 Charge=     0.0000 electrons
 Dipole moment (field-independent basis, Debye):
    X=    -0.1676    Y=     1.7018    Z=     0.0001  Tot=     1.7100
 Quadrupole moment (field-independent basis, Debye-Ang):
   XX=   -17.2179   YY=   -21.0049   ZZ=   -20.3844
   XY=    -2.0734   XZ=    -0.0001   YZ=     0.0000
 Traceless Quadrupole moment (field-independent basis, Debye-Ang):
   XX=     2.3179   YY=    -1.4692   ZZ=    -0.8487
   XY=    -2.0734   XZ=    -0.0001   YZ=     0.0000
 Octapole moment (field-independent basis, Debye-Ang**2):
  XXX=   -15.9223  YYY=    -0.4476  ZZZ=     0.0001  XYY=    -0.6090
  XXY=     2.7650  XXZ=     0.0001  XZZ=    -1.2956  YZZ=    -0.2034
  YYZ=     0.0000  XYZ=     0.0000
 Hexadecapole moment (field-independent basis, Debye-Ang**3):
 XXXX=  -136.6044 YYYY=   -60.6682 ZZZZ=   -35.0230 XXXY=    -0.2156
 XXXZ=     0.0001 YYYX=     0.6221 YYYZ=    -0.0003 ZZZX=    -0.0002
 ZZZY=     0.0002 XXYY=   -37.2985 XXZZ=   -34.0420 YYZZ=   -14.7530
 XXYZ=     0.0001 YYXZ=     0.0000 ZZXY=    -0.9827
 N-N= 8.166834230451D+01 E-N=-5.259484113317D+02  KE= 1.543455115624D+02
 1\1\RECHENZENTRUM RWTH AACHEN-PC-KOPP\Scan\RB3LYP\TZVP\C2H6O1\UMER\24-
 Aug-2011\0\\# opt=(modredundant,maxcycle=80) b3lyp geom=connectivity i
 nt=ultrafine tzvp\\Title Card Required\\0,1\C,-0.0767184801,0.53328503
 06,0.1231062655\H,-0.0591841351,0.9557366082,1.1361920323\H,-0.1918909
 609,1.3657094113,-0.5832859087\C,1.216969823,-0.2046213803,-0.15267924
 86\H,1.2152200289,-0.6174035844,-1.1628683838\H,2.0693823931,0.4717299
 491,-0.0572432665\H,1.3477065507,-1.0265142298,0.5532056417\O,-1.15560
 11223,-0.3953441588,-0.0149366403\H,-1.9838100973,0.0640033542,0.15850
 95085\\Version=AM64L-G03RevD.02\State=1-A\HF=-155.104078,-155.103969,-
 155.1036659,-155.1032388,-155.1027942,-155.1024506,-155.1023075,-155.1
 024107,-155.1027374,-155.1032001,-155.1036726,-155.1040222,-155.104146
 7,-155.1039996,-155.103603,-155.1030452,-155.1024677,-155.1020319,-155
 .1018697,-155.102032,-155.1024677,-155.1030453,-155.103603,-155.103999
 6,-155.1041468,-155.1040223,-155.1036728,-155.1032004,-155.1027375,-15
 5.1024108,-155.1023076,-155.1024507,-155.1027942,-155.103239,-155.1036
 659,-155.1039689,-155.104078\RMSD=4.093e-09,4.212e-09,4.594e-09,9.524e
 -09,2.697e-09,9.248e-09,5.009e-09,2.985e-09,7.318e-09,7.708e-09,8.488e
 -09,6.325e-09,4.932e-09,3.468e-09,3.992e-09,6.898e-09,3.851e-09,3.900e
 -09,6.947e-09,3.455e-09,4.039e-09,2.728e-09,4.251e-09,5.914e-09,6.782e
 -09,6.015e-09,5.733e-09,4.899e-09,5.121e-09,5.483e-09,6.083e-09,5.696e
 -09,4.811e-09,3.972e-09,5.194e-09,5.569e-09,5.856e-09\Thermal=0.,0.,0.
 ,0.,0.,0.,0.,0.,0.,0.,0.,0.,0.,0.,0.,0.,0.,0.,0.,0.,0.,0.,0.,0.,0.,0.,
 0.,0.,0.,0.,0.,0.,0.,0.,0.,0.,0.\PG=C01 [X(C2H6O1)]\\@


 THE PROGRESS OF RIVERS TO THE SEA IS NOT AS RAPID
 AS THAT OF MAN TO ERROR.
                                              -- VOLTAIRE
 Job cpu time:  0 days  1 hours 15 minutes  0.2 seconds.
 File lengths (MBytes):  RWF=     18 Int=      0 D2E=      0 Chk=      8 Scr=      1
 Normal termination of Gaussian 03 at Wed Aug 24 17:14:40 2011.
