 Entering Gaussian System, Link 0=/usr/local_rwth/sw/gaussian/LINUX_emt64/g09.d01_bin/g09
 Input=DMM+CH32_TS_sp_d.com
 Output=DMM+CH32_TS_sp_d.log
 Initial command:
 /usr/local_rwth/sw/gaussian/LINUX_emt64/g09.d01_bin/l1.exe "/ntmp/Gau-19037.inp" -scrdir="/ntmp/"
 Entering Link 1 = /usr/local_rwth/sw/gaussian/LINUX_emt64/g09.d01_bin/l1.exe PID=     19038.
  
 Copyright (c) 1988,1990,1992,1993,1995,1998,2003,2009,2013,
            Gaussian, Inc.  All Rights Reserved.
  
 This is part of the Gaussian(R) 09 program.  It is based on
 the Gaussian(R) 03 system (copyright 2003, Gaussian, Inc.),
 the Gaussian(R) 98 system (copyright 1998, Gaussian, Inc.),
 the Gaussian(R) 94 system (copyright 1995, Gaussian, Inc.),
 the Gaussian 92(TM) system (copyright 1992, Gaussian, Inc.),
 the Gaussian 90(TM) system (copyright 1990, Gaussian, Inc.),
 the Gaussian 88(TM) system (copyright 1988, Gaussian, Inc.),
 the Gaussian 86(TM) system (copyright 1986, Carnegie Mellon
 University), and the Gaussian 82(TM) system (copyright 1983,
 Carnegie Mellon University). Gaussian is a federally registered
 trademark of Gaussian, Inc.
  
 This software contains proprietary and confidential information,
 including trade secrets, belonging to Gaussian, Inc.
  
 This software is provided under written license and may be
 used, copied, transmitted, or stored only in accord with that
 written license.
  
 The following legend is applicable only to US Government
 contracts under FAR:
  
                    RESTRICTED RIGHTS LEGEND
  
 Use, reproduction and disclosure by the US Government is
 subject to restrictions as set forth in subparagraphs (a)
 and (c) of the Commercial Computer Software - Restricted
 Rights clause in FAR 52.227-19.
  
 Gaussian, Inc.
 340 Quinnipiac St., Bldg. 40, Wallingford CT 06492
  
  
 ---------------------------------------------------------------
 Warning -- This program may not be used in any manner that
 competes with the business of Gaussian, Inc. or will provide
 assistance to any competitor of Gaussian, Inc.  The licensee
 of this program is prohibited from giving any competitor of
 Gaussian, Inc. access to this program.  By using this program,
 the user acknowledges that Gaussian, Inc. is engaged in the
 business of creating and licensing software in the field of
 computational chemistry and represents and warrants to the
 licensee that it is not a competitor of Gaussian, Inc. and that
 it will not use this program in any manner prohibited above.
 ---------------------------------------------------------------
  

 Cite this work as:
 Gaussian 09, Revision D.01,
 M. J. Frisch, G. W. Trucks, H. B. Schlegel, G. E. Scuseria, 
 M. A. Robb, J. R. Cheeseman, G. Scalmani, V. Barone, B. Mennucci, 
 G. A. Petersson, H. Nakatsuji, M. Caricato, X. Li, H. P. Hratchian, 
 A. F. Izmaylov, J. Bloino, G. Zheng, J. L. Sonnenberg, M. Hada, 
 M. Ehara, K. Toyota, R. Fukuda, J. Hasegawa, M. Ishida, T. Nakajima, 
 Y. Honda, O. Kitao, H. Nakai, T. Vreven, J. A. Montgomery, Jr., 
 J. E. Peralta, F. Ogliaro, M. Bearpark, J. J. Heyd, E. Brothers, 
 K. N. Kudin, V. N. Staroverov, T. Keith, R. Kobayashi, J. Normand, 
 K. Raghavachari, A. Rendell, J. C. Burant, S. S. Iyengar, J. Tomasi, 
 M. Cossi, N. Rega, J. M. Millam, M. Klene, J. E. Knox, J. B. Cross, 
 V. Bakken, C. Adamo, J. Jaramillo, R. Gomperts, R. E. Stratmann, 
 O. Yazyev, A. J. Austin, R. Cammi, C. Pomelli, J. W. Ochterski, 
 R. L. Martin, K. Morokuma, V. G. Zakrzewski, G. A. Voth, 
 P. Salvador, J. J. Dannenberg, S. Dapprich, A. D. Daniels, 
 O. Farkas, J. B. Foresman, J. V. Ortiz, J. Cioslowski, 
 and D. J. Fox, Gaussian, Inc., Wallingford CT, 2013.
 
 ******************************************
 Gaussian 09:  ES64L-G09RevD.01 24-Apr-2013
                15-Jul-2016 
 ******************************************
 %chk=DMM+CH32_TS_sp_d.chk
 %mem=2000MW
 %nprocshared=4
 Will use up to    4 processors via shared memory.
 ------------------------------------------------------------------
 # ccsd(t,t1diag) aug-cc-pvdz geom=connectivity scf=(conver=11,xqc)
 ------------------------------------------------------------------
 1/38=1,57=2/1;
 2/12=2,17=6,18=5,40=1/2;
 3/5=16,7=10,11=9,16=1,25=1,30=1/1,2,3;
 4//1;
 5/5=2,6=11,8=3,13=1,38=5/2,8;
 8/6=4,9=120000,10=1/1,4;
 9/5=7,14=2,36=1/13;
 6/7=2,8=2,9=2,10=2/1;
 99/5=1,9=1/99;
 -------------------
 Title Card Required
 -------------------
 Symbolic Z-matrix:
 Charge =  0 Multiplicity = 2
 C                    -2.17978  -0.73697  -0.14165 
 H                    -2.68258  -1.20772  -0.98456 
 H                    -2.41792  -1.28285   0.77796 
 H                    -2.51551   0.2986   -0.04165 
 O                    -0.7783   -0.80031  -0.41389 
 C                     0.00661  -0.26081   0.59397 
 H                    -0.21444  -0.67664   1.58196 
 O                    -0.04755   1.11952   0.70837 
 C                     0.33095   1.81965  -0.47701 
 H                     1.3616    1.57779  -0.75313 
 H                    -0.32981   1.57347  -1.31087 
 H                     0.25337   2.87935  -0.24294 
 H                     1.21836  -0.64034   0.26347 
 C                     2.47219  -1.08126  -0.14007 
 H                     3.17416  -0.36553   0.28027 
 H                     2.42747  -1.07649  -1.22558 
 H                     2.55236  -2.07703   0.28784 
 
                          Input orientation:                          
 ---------------------------------------------------------------------
 Center     Atomic      Atomic             Coordinates (Angstroms)
 Number     Number       Type             X           Y           Z
 ---------------------------------------------------------------------
      1          6           0       -2.179781   -0.736971   -0.141647
      2          1           0       -2.682579   -1.207719   -0.984555
      3          1           0       -2.417916   -1.282851    0.777959
      4          1           0       -2.515508    0.298600   -0.041646
      5          8           0       -0.778303   -0.800308   -0.413894
      6          6           0        0.006605   -0.260809    0.593966
      7          1           0       -0.214436   -0.676644    1.581959
      8          8           0       -0.047550    1.119521    0.708366
      9          6           0        0.330951    1.819651   -0.477005
     10          1           0        1.361601    1.577789   -0.753131
     11          1           0       -0.329812    1.573473   -1.310866
     12          1           0        0.253373    2.879348   -0.242936
     13          1           0        1.218358   -0.640339    0.263469
     14          6           0        2.472185   -1.081255   -0.140073
     15          1           0        3.174161   -0.365530    0.280267
     16          1           0        2.427467   -1.076489   -1.225576
     17          1           0        2.552362   -2.077035    0.287842
 ---------------------------------------------------------------------
                    Distance matrix (angstroms):
                    1          2          3          4          5
     1  C    0.000000
     2  H    1.088533   0.000000
     3  H    1.095613   1.783857   0.000000
     4  H    1.093215   1.784933   1.783890   0.000000
     5  O    1.429080   2.029262   2.083673   2.089031   0.000000
     6  C    2.355449   3.258846   2.637560   2.660450   1.386694
     7  H    2.614773   3.600106   2.422649   2.980290   2.077659
     8  O    2.952201   3.901975   3.375629   2.706889   2.340771
     9  C    3.598966   4.301621   4.330903   3.256603   2.845806
    10  H    4.274741   4.916096   4.981189   4.144214   3.217082
    11  H    3.182391   3.657461   4.108766   2.830810   2.576924
    12  H    4.359846   5.086642   5.049942   3.790446   3.825369
    13  H    3.423566   4.134827   3.728272   3.862183   2.114490
    14  C    4.664689   5.225011   4.979610   5.175980   3.274077
    15  H    5.383370   6.050658   5.688629   5.737336   4.036442
    16  H    4.745198   5.117410   5.247330   5.265507   3.318443
    17  H    4.936943   5.457042   5.057134   5.606738   3.635353
                    6          7          8          9         10
     6  C    0.000000
     7  H    1.094490   0.000000
     8  O    1.386121   2.004301   0.000000
     9  C    2.362307   3.281504   1.427778   0.000000
    10  H    2.651627   3.608186   2.081271   1.094067   0.000000
    11  H    2.665737   3.666712   2.088790   1.092033   1.781001
    12  H    3.259123   4.024198   2.022998   1.088009   1.783963
    13  H    1.312104   1.947468   2.213044   2.717967   2.444194
    14  C    2.700191   3.216681   3.451424   3.621279   2.946142
    15  H    3.184774   3.643320   3.573243   3.665013   2.851276
    16  H    3.136342   3.875794   3.832532   3.652857   2.899046
    17  H    3.142176   3.360209   4.141781   4.550145   3.982371
                   11         12         13         14         15
    11  H    0.000000
    12  H    1.784906   0.000000
    13  H    3.126711   3.684540   0.000000
    14  C    4.033550   4.540934   1.389005   0.000000
    15  H    4.309207   4.397042   1.975087   1.087069   0.000000
    16  H    3.825201   4.619623   1.967086   1.086434   1.824987
    17  H    4.918232   5.489336   1.960677   1.086792   1.820972
                   16         17
    16  H    0.000000
    17  H    1.818550   0.000000
 Stoichiometry    C4H11O2(2)
 Framework group  C1[X(C4H11O2)]
 Deg. of freedom    45
 Full point group                 C1      NOp   1
 Largest Abelian subgroup         C1      NOp   1
 Largest concise Abelian subgroup C1      NOp   1
                         Standard orientation:                         
 ---------------------------------------------------------------------
 Center     Atomic      Atomic             Coordinates (Angstroms)
 Number     Number       Type             X           Y           Z
 ---------------------------------------------------------------------
      1          6           0       -2.179781   -0.736971   -0.141647
      2          1           0       -2.682579   -1.207719   -0.984555
      3          1           0       -2.417916   -1.282851    0.777959
      4          1           0       -2.515508    0.298600   -0.041646
      5          8           0       -0.778303   -0.800308   -0.413894
      6          6           0        0.006605   -0.260809    0.593966
      7          1           0       -0.214436   -0.676644    1.581959
      8          8           0       -0.047550    1.119521    0.708366
      9          6           0        0.330951    1.819651   -0.477005
     10          1           0        1.361601    1.577789   -0.753131
     11          1           0       -0.329812    1.573473   -1.310866
     12          1           0        0.253373    2.879348   -0.242936
     13          1           0        1.218358   -0.640339    0.263469
     14          6           0        2.472185   -1.081255   -0.140073
     15          1           0        3.174161   -0.365530    0.280267
     16          1           0        2.427467   -1.076489   -1.225576
     17          1           0        2.552362   -2.077035    0.287842
 ---------------------------------------------------------------------
 Rotational constants (GHZ):      3.5884991      2.3691516      1.6746702
 Standard basis: Aug-CC-pVDZ (5D, 7F)
 There are   249 symmetry adapted cartesian basis functions of A   symmetry.
 There are   237 symmetry adapted basis functions of A   symmetry.
   237 basis functions,   379 primitive gaussians,   249 cartesian basis functions
    26 alpha electrons       25 beta electrons
       nuclear repulsion energy       264.1044289019 Hartrees.
 NAtoms=   17 NActive=   17 NUniq=   17 SFac= 1.00D+00 NAtFMM=   60 NAOKFM=F Big=F
 Integral buffers will be    131072 words long.
 Raffenetti 2 integral format.
 Two-electron integral symmetry is turned on.
 One-electron integrals computed using PRISM.
 NBasis=   237 RedAO= T EigKep=  4.59D-05  NBF=   237
 NBsUse=   237 1.00D-06 EigRej= -1.00D+00 NBFU=   237
 ExpMin= 2.97D-02 ExpMax= 1.17D+04 ExpMxC= 4.01D+02 IAcc=3 IRadAn=         5 AccDes= 0.00D+00
 Harris functional with IExCor=  205 and IRadAn=       5 diagonalized for initial guess.
 HarFok:  IExCor=  205 AccDes= 0.00D+00 IRadAn=         5 IDoV= 1 UseB2=F ITyADJ=14
 ICtDFT=  3500011 ScaDFX=  1.000000  1.000000  1.000000  1.000000
 FoFCou: FMM=F IPFlag=           0 FMFlag=      100000 FMFlg1=           0
         NFxFlg=           0 DoJE=T BraDBF=F KetDBF=T FulRan=T
         wScrn=  0.000000 ICntrl=     500 IOpCl=  0 I1Cent=   200000004 NGrid=           0
         NMat0=    1 NMatS0=      1 NMatT0=    0 NMatD0=    1 NMtDS0=    0 NMtDT0=    0
 Petite list used in FoFCou.
 Initial guess <Sx>= 0.0000 <Sy>= 0.0000 <Sz>= 0.5000 <S**2>= 0.7500 S= 0.5000
 Keep R1 and R2 ints in memory in canonical form, NReq=803445100.
 Requested convergence on RMS density matrix=1.00D-11 within  64 cycles.
 Requested convergence on MAX density matrix=1.00D-09.
 Requested convergence on             energy=1.00D-09.
 No special actions if energy rises.
 SCF Done:  E(UHF) =  -307.512371596     A.U. after   27 cycles
            NFock= 27  Conv=0.72D-11     -V/T= 2.0014
 <Sx>= 0.0000 <Sy>= 0.0000 <Sz>= 0.5000 <S**2>= 0.7890 S= 0.5193
 <L.S>= 0.000000000000E+00
 Annihilation of the first spin contaminant:
 S**2 before annihilation     0.7890,   after     0.7506
 QCSCF skips out because SCF is already converged.
 ExpMin= 2.97D-02 ExpMax= 1.17D+04 ExpMxC= 4.01D+02 IAcc=3 IRadAn=         5 AccDes= 0.00D+00
 HarFok:  IExCor=  205 AccDes= 0.00D+00 IRadAn=         5 IDoV=-2 UseB2=F ITyADJ=14
 ICtDFT= 12500011 ScaDFX=  1.000000  1.000000  1.000000  1.000000
 Range of M.O.s used for correlation:     7   237
 NBasis=   237 NAE=    26 NBE=    25 NFC=     6 NFV=     0
 NROrb=    231 NOA=    20 NOB=    19 NVA=   211 NVB=   212

 **** Warning!!: The largest alpha MO coefficient is  0.35535395D+02


 **** Warning!!: The largest beta MO coefficient is  0.34118091D+02

 Semi-Direct transformation.
 ModeAB=           2 MOrb=            20 LenV=    2095394037
 LASXX=    116331895 LTotXX=   116331895 LenRXX=   116331895
 LTotAB=   118706280 MaxLAS=   143797500 LenRXY=   143797500
 NonZer=   232663790 LenScr=   350364672 LnRSAI=           0
 LnScr1=           0 LExtra=           0 Total=    610494067
 MaxDsk=          -1 SrtSym=           F ITran=            4
 JobTyp=1 Pass  1:  I=   1 to  20.
 (rs|ai) integrals will be sorted in core.
 ModeAB=           2 MOrb=            19 LenV=    2095394037
 LASXX=    110843112 LTotXX=   110843112 LenRXX=   136607625
 LTotAB=    94339788 MaxLAS=   136607625 LenRXY=    94339788
 NonZer=   221686224 LenScr=   333834240 LnRSAI=           0
 LnScr1=           0 LExtra=           0 Total=    564781653
 MaxDsk=          -1 SrtSym=           F ITran=            4
 JobTyp=2 Pass  1:  I=   1 to  19.
 (rs|ai) integrals will be sorted in core.
 SymMOI:  orbitals are not symmetric.
 Spin components of T(2) and E(2):
     alpha-alpha T2 =       0.4037879455D-01 E2=     -0.1268799960D+00
     alpha-beta  T2 =       0.2329358195D+00 E2=     -0.7578595135D+00
     beta-beta   T2 =       0.3717417217D-01 E2=     -0.1155233831D+00
 ANorm=    0.1144765822D+01
 E2 =    -0.1000262893D+01 EUMP2 =    -0.30851263448876D+03
 (S**2,0)=  0.78902D+00           (S**2,1)=  0.76314D+00
 E(PUHF)=      -0.30752046138D+03        E(PMP2)=      -0.30851806423D+03
 Keep R2 and R3 ints in memory in canonical form, NReq=803251548.
 Iterations=  50 Convergence= 0.100D-06
 Iteration Nr.   1
 **********************
 DD1Dir will call FoFMem   1 times, MxPair=      1122
 NAB=   380 NAA=   190 NBB=   171.
 E(PMP3)=      -0.30857069738D+03
 MP4(R+Q)=  0.18873104D-01
 E3=       -0.55008627D-01        EUMP3=      -0.30856764312D+03
 E4(DQ)=   -0.59169985D-02        UMP4(DQ)=   -0.30857356011D+03
 E4(SDQ)=  -0.16740711D-01        UMP4(SDQ)=  -0.30858438383D+03
 DE(Corr)=  -1.0360574     E(Corr)=     -308.54842902    
 NORM(A)=   0.11614965D+01
 Iteration Nr.   2
 **********************
 DD1Dir will call FoFMem   1 times, MxPair=      1122
 NAB=   380 NAA=   190 NBB=   171.
 DE(Corr)=  -1.0656187     E(CORR)=     -308.57799030     Delta=-2.96D-02
 NORM(A)=   0.11745948D+01
 Iteration Nr.   3
 **********************
 DD1Dir will call FoFMem   1 times, MxPair=      1122
 NAB=   380 NAA=   190 NBB=   171.
 DE(Corr)=  -1.0688005     E(CORR)=     -308.58117211     Delta=-3.18D-03
 NORM(A)=   0.11782778D+01
 Iteration Nr.   4
 **********************
 DD1Dir will call FoFMem   1 times, MxPair=      1122
 NAB=   380 NAA=   190 NBB=   171.
 DE(Corr)=  -1.0716978     E(CORR)=     -308.58406937     Delta=-2.90D-03
 NORM(A)=   0.11794044D+01
 Iteration Nr.   5
 **********************
 DD1Dir will call FoFMem   1 times, MxPair=      1122
 NAB=   380 NAA=   190 NBB=   171.
 DE(Corr)=  -1.0720869     E(CORR)=     -308.58445847     Delta=-3.89D-04
 NORM(A)=   0.11798764D+01
 Iteration Nr.   6
 **********************
 DD1Dir will call FoFMem   1 times, MxPair=      1122
 NAB=   380 NAA=   190 NBB=   171.
 DE(Corr)=  -1.0721552     E(CORR)=     -308.58452677     Delta=-6.83D-05
 NORM(A)=   0.11799632D+01
 Iteration Nr.   7
 **********************
 DD1Dir will call FoFMem   1 times, MxPair=      1122
 NAB=   380 NAA=   190 NBB=   171.
 DE(Corr)=  -1.0721605     E(CORR)=     -308.58453215     Delta=-5.38D-06
 NORM(A)=   0.11799982D+01
 Iteration Nr.   8
 **********************
 DD1Dir will call FoFMem   1 times, MxPair=      1122
 NAB=   380 NAA=   190 NBB=   171.
 DE(Corr)=  -1.0721499     E(CORR)=     -308.58452153     Delta= 1.06D-05
 NORM(A)=   0.11800193D+01
 Iteration Nr.   9
 **********************
 DD1Dir will call FoFMem   1 times, MxPair=      1122
 NAB=   380 NAA=   190 NBB=   171.
 DE(Corr)=  -1.0721552     E(CORR)=     -308.58452680     Delta=-5.27D-06
 NORM(A)=   0.11800245D+01
 Iteration Nr.  10
 **********************
 DD1Dir will call FoFMem   1 times, MxPair=      1122
 NAB=   380 NAA=   190 NBB=   171.
 DE(Corr)=  -1.0721564     E(CORR)=     -308.58452803     Delta=-1.23D-06
 NORM(A)=   0.11800295D+01
 Iteration Nr.  11
 **********************
 DD1Dir will call FoFMem   1 times, MxPair=      1122
 NAB=   380 NAA=   190 NBB=   171.
 DE(Corr)=  -1.0721589     E(CORR)=     -308.58453054     Delta=-2.51D-06
 NORM(A)=   0.11800318D+01
 Iteration Nr.  12
 **********************
 DD1Dir will call FoFMem   1 times, MxPair=      1122
 NAB=   380 NAA=   190 NBB=   171.
 DE(Corr)=  -1.0721601     E(CORR)=     -308.58453170     Delta=-1.17D-06
 NORM(A)=   0.11800333D+01
 Iteration Nr.  13
 **********************
 DD1Dir will call FoFMem   1 times, MxPair=      1122
 NAB=   380 NAA=   190 NBB=   171.
 DE(Corr)=  -1.0721606     E(CORR)=     -308.58453221     Delta=-5.02D-07
 NORM(A)=   0.11800340D+01
 Iteration Nr.  14
 **********************
 DD1Dir will call FoFMem   1 times, MxPair=      1122
 NAB=   380 NAA=   190 NBB=   171.
 DE(Corr)=  -1.0721609     E(CORR)=     -308.58453248     Delta=-2.75D-07
 NORM(A)=   0.11800344D+01
 Iteration Nr.  15
 **********************
 DD1Dir will call FoFMem   1 times, MxPair=      1122
 NAB=   380 NAA=   190 NBB=   171.
 DE(Corr)=  -1.0721609     E(CORR)=     -308.58453254     Delta=-5.76D-08
 NORM(A)=   0.11800346D+01
 Iteration Nr.  16
 **********************
 DD1Dir will call FoFMem   1 times, MxPair=      1122
 NAB=   380 NAA=   190 NBB=   171.
 DE(Corr)=  -1.0721610     E(CORR)=     -308.58453256     Delta=-2.17D-08
 NORM(A)=   0.11800347D+01
 Iteration Nr.  17
 **********************
 DD1Dir will call FoFMem   1 times, MxPair=      1122
 NAB=   380 NAA=   190 NBB=   171.
 DE(Corr)=  -1.0721610     E(CORR)=     -308.58453256     Delta= 2.85D-09
 NORM(A)=   0.11800347D+01
 T1 Diagnostic =     0.01494793
 Largest amplitude= 4.10D-02
 Time for triples=    24797.15 seconds.
 T4(CCSD)= -0.37608125D-01
 T5(CCSD)=  0.21048971D-02
 CCSD(T)= -0.30862003579D+03

 S**2, projected HF & approx projected MPn energies after annihilation of
 unwanted spin states (see manual for definitions):

 spins       (S**2,0) (S**2,1)    PUHF        PMP2        PMP3        PMP4
 annihilated
 s+1         0.74967  0.75013 -307.520461 -308.518064 -308.570697
 s+1,s+2     0.75000  0.75000 -307.520404 -308.518012 -308.570652
 s+1 to s+3  0.75000  0.75000 -307.520404 -308.518012 -308.570652
 s+1 to s+4  0.75000  0.75000 -307.520404 -308.518012 -308.570652
 s+1 to s+5  0.75000  0.75000 -307.520404
 s+1 to s+6  0.75000  0.75000 -307.520404

 Discarding MO integrals.

 **********************************************************************

            Population analysis using the SCF density.

 **********************************************************************

 Orbital symmetries:
 Alpha Orbitals:
       Occupied  (A) (A) (A) (A) (A) (A) (A) (A) (A) (A) (A) (A)
                 (A) (A) (A) (A) (A) (A) (A) (A) (A) (A) (A) (A)
                 (A) (A)
       Virtual   (A) (A) (A) (A) (A) (A) (A) (A) (A) (A) (A) (A)
                 (A) (A) (A) (A) (A) (A) (A) (A) (A) (A) (A) (A)
                 (A) (A) (A) (A) (A) (A) (A) (A) (A) (A) (A) (A)
                 (A) (A) (A) (A) (A) (A) (A) (A) (A) (A) (A) (A)
                 (A) (A) (A) (A) (A) (A) (A) (A) (A) (A) (A) (A)
                 (A) (A) (A) (A) (A) (A) (A) (A) (A) (A) (A) (A)
                 (A) (A) (A) (A) (A) (A) (A) (A) (A) (A) (A) (A)
                 (A) (A) (A) (A) (A) (A) (A) (A) (A) (A) (A) (A)
                 (A) (A) (A) (A) (A) (A) (A) (A) (A) (A) (A) (A)
                 (A) (A) (A) (A) (A) (A) (A) (A) (A) (A) (A) (A)
                 (A) (A) (A) (A) (A) (A) (A) (A) (A) (A) (A) (A)
                 (A) (A) (A) (A) (A) (A) (A) (A) (A) (A) (A) (A)
                 (A) (A) (A) (A) (A) (A) (A) (A) (A) (A) (A) (A)
                 (A) (A) (A) (A) (A) (A) (A) (A) (A) (A) (A) (A)
                 (A) (A) (A) (A) (A) (A) (A) (A) (A) (A) (A) (A)
                 (A) (A) (A) (A) (A) (A) (A) (A) (A) (A) (A) (A)
                 (A) (A) (A) (A) (A) (A) (A) (A) (A) (A) (A) (A)
                 (A) (A) (A) (A) (A) (A) (A)
 Beta  Orbitals:
       Occupied  (A) (A) (A) (A) (A) (A) (A) (A) (A) (A) (A) (A)
                 (A) (A) (A) (A) (A) (A) (A) (A) (A) (A) (A) (A)
                 (A)
       Virtual   (A) (A) (A) (A) (A) (A) (A) (A) (A) (A) (A) (A)
                 (A) (A) (A) (A) (A) (A) (A) (A) (A) (A) (A) (A)
                 (A) (A) (A) (A) (A) (A) (A) (A) (A) (A) (A) (A)
                 (A) (A) (A) (A) (A) (A) (A) (A) (A) (A) (A) (A)
                 (A) (A) (A) (A) (A) (A) (A) (A) (A) (A) (A) (A)
                 (A) (A) (A) (A) (A) (A) (A) (A) (A) (A) (A) (A)
                 (A) (A) (A) (A) (A) (A) (A) (A) (A) (A) (A) (A)
                 (A) (A) (A) (A) (A) (A) (A) (A) (A) (A) (A) (A)
                 (A) (A) (A) (A) (A) (A) (A) (A) (A) (A) (A) (A)
                 (A) (A) (A) (A) (A) (A) (A) (A) (A) (A) (A) (A)
                 (A) (A) (A) (A) (A) (A) (A) (A) (A) (A) (A) (A)
                 (A) (A) (A) (A) (A) (A) (A) (A) (A) (A) (A) (A)
                 (A) (A) (A) (A) (A) (A) (A) (A) (A) (A) (A) (A)
                 (A) (A) (A) (A) (A) (A) (A) (A) (A) (A) (A) (A)
                 (A) (A) (A) (A) (A) (A) (A) (A) (A) (A) (A) (A)
                 (A) (A) (A) (A) (A) (A) (A) (A) (A) (A) (A) (A)
                 (A) (A) (A) (A) (A) (A) (A) (A) (A) (A) (A) (A)
                 (A) (A) (A) (A) (A) (A) (A) (A)
 The electronic state is 2-A.
 Alpha  occ. eigenvalues --  -20.57582 -20.57487 -11.33588 -11.28198 -11.27755
 Alpha  occ. eigenvalues --  -11.23204  -1.42573  -1.35310  -0.99180  -0.95301
 Alpha  occ. eigenvalues --   -0.93643  -0.83459  -0.69748  -0.69411  -0.68011
 Alpha  occ. eigenvalues --   -0.61493  -0.60092  -0.57790  -0.56160  -0.56004
 Alpha  occ. eigenvalues --   -0.54278  -0.52724  -0.48849  -0.45523  -0.44532
 Alpha  occ. eigenvalues --   -0.31792
 Alpha virt. eigenvalues --    0.03445   0.04491   0.04627   0.05021   0.06458
 Alpha virt. eigenvalues --    0.06686   0.06979   0.07256   0.08177   0.09545
 Alpha virt. eigenvalues --    0.10258   0.12376   0.13506   0.14407   0.15487
 Alpha virt. eigenvalues --    0.16167   0.16594   0.16758   0.16897   0.17330
 Alpha virt. eigenvalues --    0.17643   0.18544   0.19140   0.20377   0.21069
 Alpha virt. eigenvalues --    0.21694   0.24778   0.27306   0.27613   0.28132
 Alpha virt. eigenvalues --    0.28856   0.29685   0.30423   0.31246   0.32063
 Alpha virt. eigenvalues --    0.32796   0.33501   0.34280   0.35815   0.36510
 Alpha virt. eigenvalues --    0.37538   0.39854   0.40670   0.41475   0.41764
 Alpha virt. eigenvalues --    0.42674   0.43551   0.43812   0.44592   0.45249
 Alpha virt. eigenvalues --    0.45919   0.46712   0.47649   0.48035   0.48692
 Alpha virt. eigenvalues --    0.49444   0.50767   0.51918   0.52689   0.53547
 Alpha virt. eigenvalues --    0.54293   0.55490   0.56674   0.56888   0.58006
 Alpha virt. eigenvalues --    0.58863   0.59686   0.60291   0.61695   0.62233
 Alpha virt. eigenvalues --    0.62409   0.62987   0.63703   0.64833   0.64894
 Alpha virt. eigenvalues --    0.65305   0.65797   0.67713   0.68021   0.68927
 Alpha virt. eigenvalues --    0.69512   0.70709   0.71689   0.72966   0.73165
 Alpha virt. eigenvalues --    0.75941   0.76453   0.77446   0.78752   0.79457
 Alpha virt. eigenvalues --    0.80198   0.81373   0.83121   0.84261   0.85982
 Alpha virt. eigenvalues --    0.87055   0.87921   0.89968   0.91294   0.92686
 Alpha virt. eigenvalues --    0.96544   0.98269   1.00135   1.02143   1.04452
 Alpha virt. eigenvalues --    1.06961   1.07606   1.08727   1.10162   1.13263
 Alpha virt. eigenvalues --    1.14180   1.15727   1.16579   1.17713   1.19917
 Alpha virt. eigenvalues --    1.22568   1.24783   1.27770   1.31753   1.36345
 Alpha virt. eigenvalues --    1.38148   1.39921   1.40704   1.42371   1.44945
 Alpha virt. eigenvalues --    1.49092   1.50530   1.53784   1.60166   1.61927
 Alpha virt. eigenvalues --    1.64346   1.66965   1.69152   1.70101   1.74905
 Alpha virt. eigenvalues --    1.75483   1.77940   1.80094   1.80898   1.82628
 Alpha virt. eigenvalues --    1.84405   1.86411   1.87888   1.89236   1.90066
 Alpha virt. eigenvalues --    1.92277   1.94231   1.98298   1.99095   2.01634
 Alpha virt. eigenvalues --    2.03473   2.05081   2.06394   2.11537   2.11878
 Alpha virt. eigenvalues --    2.14944   2.17070   2.18058   2.18840   2.21382
 Alpha virt. eigenvalues --    2.22215   2.24205   2.25123   2.27444   2.29400
 Alpha virt. eigenvalues --    2.30698   2.32709   2.35109   2.36427   2.40650
 Alpha virt. eigenvalues --    2.42157   2.42769   2.43839   2.48039   2.50133
 Alpha virt. eigenvalues --    2.51067   2.55553   2.57439   2.62836   2.66726
 Alpha virt. eigenvalues --    2.68383   2.71617   2.74232   2.77147   2.80468
 Alpha virt. eigenvalues --    2.81925   2.83689   2.88285   2.91166   2.92703
 Alpha virt. eigenvalues --    2.96296   2.96528   3.00993   3.02836   3.04232
 Alpha virt. eigenvalues --    3.07917   3.11650   3.16436   3.38151   3.41892
 Alpha virt. eigenvalues --    3.66714   3.82392   3.83752   3.86526   3.88545
 Alpha virt. eigenvalues --    3.97651   3.98316   4.07883   4.10629   4.14486
 Alpha virt. eigenvalues --    4.20311
  Beta  occ. eigenvalues --  -20.57515 -20.57384 -11.31707 -11.28104 -11.27750
  Beta  occ. eigenvalues --  -11.21152  -1.41737  -1.34988  -0.97136  -0.93565
  Beta  occ. eigenvalues --   -0.89373  -0.81079  -0.69239  -0.67757  -0.65771
  Beta  occ. eigenvalues --   -0.60726  -0.60018  -0.56593  -0.54912  -0.54768
  Beta  occ. eigenvalues --   -0.52540  -0.51561  -0.45821  -0.44552  -0.43360
  Beta virt. eigenvalues --    0.03454   0.04322   0.04603   0.05018   0.06468
  Beta virt. eigenvalues --    0.06640   0.06917   0.07216   0.08199   0.09532
  Beta virt. eigenvalues --    0.10216   0.11916   0.12402   0.13539   0.14425
  Beta virt. eigenvalues --    0.15523   0.16507   0.16742   0.16809   0.17027
  Beta virt. eigenvalues --    0.17566   0.18226   0.18603   0.19998   0.20503
  Beta virt. eigenvalues --    0.21245   0.21878   0.25155   0.27523   0.27791
  Beta virt. eigenvalues --    0.28237   0.28987   0.29930   0.30626   0.31418
  Beta virt. eigenvalues --    0.32252   0.33027   0.33740   0.34509   0.35977
  Beta virt. eigenvalues --    0.36841   0.37726   0.40136   0.41210   0.41789
  Beta virt. eigenvalues --    0.41998   0.43300   0.43842   0.44466   0.44969
  Beta virt. eigenvalues --    0.45746   0.46241   0.46950   0.48030   0.48327
  Beta virt. eigenvalues --    0.49457   0.49774   0.51393   0.52302   0.53738
  Beta virt. eigenvalues --    0.54057   0.54526   0.55882   0.56850   0.57949
  Beta virt. eigenvalues --    0.59050   0.59333   0.59984   0.60812   0.61939
  Beta virt. eigenvalues --    0.62489   0.62975   0.63769   0.64114   0.64933
  Beta virt. eigenvalues --    0.65505   0.65608   0.66682   0.68100   0.68256
  Beta virt. eigenvalues --    0.69578   0.69771   0.70969   0.71870   0.73155
  Beta virt. eigenvalues --    0.74156   0.76055   0.77052   0.77637   0.79018
  Beta virt. eigenvalues --    0.79528   0.80568   0.81635   0.83345   0.84941
  Beta virt. eigenvalues --    0.86281   0.87758   0.88151   0.90158   0.92204
  Beta virt. eigenvalues --    0.93170   0.97234   0.98488   1.00394   1.02456
  Beta virt. eigenvalues --    1.05159   1.07254   1.08110   1.08991   1.10628
  Beta virt. eigenvalues --    1.13983   1.14610   1.16054   1.17454   1.17870
  Beta virt. eigenvalues --    1.20570   1.23197   1.25047   1.27966   1.32210
  Beta virt. eigenvalues --    1.36918   1.39046   1.40156   1.41422   1.43919
  Beta virt. eigenvalues --    1.47130   1.49560   1.51446   1.53976   1.60312
  Beta virt. eigenvalues --    1.62323   1.64750   1.67228   1.69710   1.70686
  Beta virt. eigenvalues --    1.75569   1.76438   1.78920   1.80880   1.81506
  Beta virt. eigenvalues --    1.84240   1.84695   1.87334   1.88443   1.89708
  Beta virt. eigenvalues --    1.91545   1.92751   1.94668   1.98961   1.99929
  Beta virt. eigenvalues --    2.01970   2.03597   2.05264   2.06885   2.11801
  Beta virt. eigenvalues --    2.12377   2.15517   2.17229   2.18452   2.19175
  Beta virt. eigenvalues --    2.21613   2.22516   2.24890   2.25594   2.28179
  Beta virt. eigenvalues --    2.29709   2.30950   2.33099   2.35632   2.37118
  Beta virt. eigenvalues --    2.41355   2.42767   2.43476   2.44515   2.48219
  Beta virt. eigenvalues --    2.50634   2.51366   2.56003   2.58012   2.63131
  Beta virt. eigenvalues --    2.66940   2.68602   2.72235   2.74672   2.77315
  Beta virt. eigenvalues --    2.80858   2.82546   2.84163   2.88517   2.91467
  Beta virt. eigenvalues --    2.93282   2.96424   2.96705   3.01781   3.03177
  Beta virt. eigenvalues --    3.04840   3.08483   3.11990   3.16603   3.39039
  Beta virt. eigenvalues --    3.42017   3.67063   3.82496   3.84023   3.86704
  Beta virt. eigenvalues --    3.88781   3.97685   3.98524   4.08108   4.10728
  Beta virt. eigenvalues --    4.14558   4.20526
          Condensed to atoms (all electrons):
               1          2          3          4          5          6
     1  C    4.030975   0.474103   0.352447   0.359978   0.068997  -0.075859
     2  H    0.474103   1.319943  -0.185475  -0.201802  -0.137767  -0.033623
     3  H    0.352447  -0.185475   0.921325  -0.071198   0.033358   0.017899
     4  H    0.359978  -0.201802  -0.071198   0.957549   0.030833   0.012674
     5  O    0.068997  -0.137767   0.033358   0.030833   8.988407  -0.008072
     6  C   -0.075859  -0.033623   0.017899   0.012674  -0.008072   5.064143
     7  H    0.047924   0.002207  -0.018682  -0.000494  -0.089134   0.228764
     8  O    0.012416   0.003988   0.004449  -0.011667   0.024974  -0.083875
     9  C    0.006882   0.004191  -0.004014  -0.003647   0.017625  -0.056532
    10  H   -0.000612   0.000510   0.001118  -0.000909   0.004615   0.039620
    11  H   -0.014680  -0.003948   0.000549  -0.008455  -0.017789   0.002897
    12  H    0.007756   0.000904  -0.001621   0.001576   0.009572  -0.014450
    13  H   -0.012043  -0.001436   0.010777  -0.002363  -0.030330   0.121548
    14  C   -0.008425  -0.001868  -0.000444  -0.000675  -0.007830  -0.380946
    15  H    0.003462  -0.000129   0.000415  -0.000347   0.019167  -0.060554
    16  H   -0.005470   0.000118  -0.001212   0.000154  -0.028403   0.021897
    17  H   -0.000464  -0.000431  -0.000637   0.000599   0.007398  -0.075974
               7          8          9         10         11         12
     1  C    0.047924   0.012416   0.006882  -0.000612  -0.014680   0.007756
     2  H    0.002207   0.003988   0.004191   0.000510  -0.003948   0.000904
     3  H   -0.018682   0.004449  -0.004014   0.001118   0.000549  -0.001621
     4  H   -0.000494  -0.011667  -0.003647  -0.000909  -0.008455   0.001576
     5  O   -0.089134   0.024974   0.017625   0.004615  -0.017789   0.009572
     6  C    0.228764  -0.083875  -0.056532   0.039620   0.002897  -0.014450
     7  H    1.334626  -0.058266   0.005570   0.002325   0.005676  -0.000206
     8  O   -0.058266   9.024156   0.096982   0.004134   0.031132  -0.124313
     9  C    0.005570   0.096982   3.962944   0.347367   0.339614   0.448024
    10  H    0.002325   0.004134   0.347367   0.963898  -0.068151  -0.180723
    11  H    0.005676   0.031132   0.339614  -0.068151   1.023234  -0.231174
    12  H   -0.000206  -0.124313   0.448024  -0.180723  -0.231174   1.319774
    13  H   -0.194171  -0.010344  -0.003106  -0.003461  -0.005943  -0.009400
    14  C   -0.020602  -0.000384   0.011725  -0.022210   0.009367   0.000954
    15  H    0.002202   0.000819   0.010662  -0.005007   0.001095   0.001793
    16  H    0.008083  -0.004370   0.001589  -0.016337   0.005946   0.000758
    17  H   -0.005904   0.006917  -0.007055  -0.000215  -0.001650   0.000196
              13         14         15         16         17
     1  C   -0.012043  -0.008425   0.003462  -0.005470  -0.000464
     2  H   -0.001436  -0.001868  -0.000129   0.000118  -0.000431
     3  H    0.010777  -0.000444   0.000415  -0.001212  -0.000637
     4  H   -0.002363  -0.000675  -0.000347   0.000154   0.000599
     5  O   -0.030330  -0.007830   0.019167  -0.028403   0.007398
     6  C    0.121548  -0.380946  -0.060554   0.021897  -0.075974
     7  H   -0.194171  -0.020602   0.002202   0.008083  -0.005904
     8  O   -0.010344  -0.000384   0.000819  -0.004370   0.006917
     9  C   -0.003106   0.011725   0.010662   0.001589  -0.007055
    10  H   -0.003461  -0.022210  -0.005007  -0.016337  -0.000215
    11  H   -0.005943   0.009367   0.001095   0.005946  -0.001650
    12  H   -0.009400   0.000954   0.001793   0.000758   0.000196
    13  H    1.330569   0.021664  -0.021814  -0.051850  -0.030602
    14  C    0.021664   5.064592   0.390278   0.436758   0.345479
    15  H   -0.021814   0.390278   0.893166  -0.115757  -0.087991
    16  H   -0.051850   0.436758  -0.115757   0.879617  -0.114443
    17  H   -0.030602   0.345479  -0.087991  -0.114443   1.049610
          Atomic-Atomic Spin Densities.
               1          2          3          4          5          6
     1  C    0.031899  -0.002757   0.002043  -0.000605   0.001496   0.001814
     2  H   -0.002757   0.002229  -0.000441  -0.002146   0.000214   0.004335
     3  H    0.002043  -0.000441  -0.002006   0.002309  -0.000329  -0.003505
     4  H   -0.000605  -0.002146   0.002309   0.005019  -0.000218  -0.005086
     5  O    0.001496   0.000214  -0.000329  -0.000218  -0.006655  -0.058411
     6  C    0.001814   0.004335  -0.003505  -0.005086  -0.058411   1.344036
     7  H   -0.004185  -0.000326   0.001600  -0.000887   0.002681   0.035791
     8  O    0.001878  -0.001060   0.000517   0.004296   0.001824  -0.084597
     9  C   -0.001497   0.000035  -0.000012  -0.001049   0.002270  -0.019810
    10  H   -0.000159  -0.000239   0.000049   0.000686  -0.001445   0.016456
    11  H    0.000449   0.000297   0.000020  -0.001074   0.001617  -0.009055
    12  H    0.000076   0.000076  -0.000041  -0.000277   0.000211  -0.000721
    13  H   -0.002566   0.000055  -0.001269  -0.001062   0.032149  -0.053219
    14  C   -0.005301   0.000939  -0.000081  -0.002722   0.009286  -0.398012
    15  H   -0.001411   0.000007   0.000046  -0.000305  -0.001845  -0.025852
    16  H    0.000358   0.000215   0.000050  -0.000344   0.003279  -0.027390
    17  H   -0.000470   0.000192  -0.000072  -0.000301   0.000001  -0.026926
               7          8          9         10         11         12
     1  C   -0.004185   0.001878  -0.001497  -0.000159   0.000449   0.000076
     2  H   -0.000326  -0.001060   0.000035  -0.000239   0.000297   0.000076
     3  H    0.001600   0.000517  -0.000012   0.000049   0.000020  -0.000041
     4  H   -0.000887   0.004296  -0.001049   0.000686  -0.001074  -0.000277
     5  O    0.002681   0.001824   0.002270  -0.001445   0.001617   0.000211
     6  C    0.035791  -0.084597  -0.019810   0.016456  -0.009055  -0.000721
     7  H   -0.051180   0.004214  -0.000392  -0.000353  -0.000062   0.000417
     8  O    0.004214   0.070248   0.001398  -0.001991  -0.000321  -0.000403
     9  C   -0.000392   0.001398   0.005603  -0.003543   0.000764   0.001129
    10  H   -0.000353  -0.001991  -0.003543   0.006953  -0.002773  -0.001198
    11  H   -0.000062  -0.000321   0.000764  -0.002773   0.006071   0.000287
    12  H    0.000417  -0.000403   0.001129  -0.001198   0.000287  -0.000688
    13  H    0.019122   0.015503  -0.001191   0.006934   0.000864  -0.001640
    14  C   -0.032393   0.003444   0.004114  -0.010029   0.001646   0.001069
    15  H   -0.004477   0.000023  -0.000916  -0.001982   0.000274   0.000036
    16  H   -0.003506  -0.000104   0.000545  -0.001467  -0.000117   0.000240
    17  H   -0.003231  -0.000339   0.002300  -0.000624   0.000299   0.000185
              13         14         15         16         17
     1  C   -0.002566  -0.005301  -0.001411   0.000358  -0.000470
     2  H    0.000055   0.000939   0.000007   0.000215   0.000192
     3  H   -0.001269  -0.000081   0.000046   0.000050  -0.000072
     4  H   -0.001062  -0.002722  -0.000305  -0.000344  -0.000301
     5  O    0.032149   0.009286  -0.001845   0.003279   0.000001
     6  C   -0.053219  -0.398012  -0.025852  -0.027390  -0.026926
     7  H    0.019122  -0.032393  -0.004477  -0.003506  -0.003231
     8  O    0.015503   0.003444   0.000023  -0.000104  -0.000339
     9  C   -0.001191   0.004114  -0.000916   0.000545   0.002300
    10  H    0.006934  -0.010029  -0.001982  -0.001467  -0.000624
    11  H    0.000864   0.001646   0.000274  -0.000117   0.000299
    12  H   -0.001640   0.001069   0.000036   0.000240   0.000185
    13  H   -0.322753  -0.186332  -0.020850  -0.022108  -0.025377
    14  C   -0.186332   1.545698   0.041525   0.034917   0.056870
    15  H   -0.020850   0.041525  -0.108816   0.032345   0.035977
    16  H   -0.022108   0.034917   0.032345  -0.106462   0.033322
    17  H   -0.025377   0.056870   0.035977   0.033322  -0.124365
 Mulliken charges and spin densities:
               1          2
     1  C    0.752612   0.021064
     2  H   -0.239484   0.001625
     3  H   -0.059054  -0.001122
     4  H   -0.061806  -0.003764
     5  O   -0.885622  -0.013873
     6  C    1.280443   0.689847
     7  H   -0.249918  -0.037170
     8  O   -0.916748   0.014529
     9  C    0.821179  -0.010251
    10  H   -0.065962   0.005276
    11  H   -0.067720  -0.000813
    12  H   -0.229421  -0.001242
    13  H   -0.107696  -0.563737
    14  C    0.162567   1.064638
    15  H   -0.031461  -0.056221
    16  H   -0.017077  -0.056229
    17  H   -0.084832  -0.052558
 Sum of Mulliken charges =   0.00000   1.00000
 Mulliken charges and spin densities with hydrogens summed into heavy atoms:
               1          2
     1  C    0.392268   0.017803
     5  O   -0.885622  -0.013873
     6  C    0.922829   0.088939
     8  O   -0.916748   0.014529
     9  C    0.458076  -0.007029
    14  C    0.029197   0.899631
 Electronic spatial extent (au):  <R**2>=            807.2682
 Charge=              0.0000 electrons
 Dipole moment (field-independent basis, Debye):
    X=             -0.5630    Y=              0.1073    Z=             -0.2582  Tot=              0.6286
 Quadrupole moment (field-independent basis, Debye-Ang):
   XX=            -36.2953   YY=            -39.0358   ZZ=            -40.2523
   XY=              1.5445   XZ=             -0.0033   YZ=             -3.7165
 Traceless Quadrupole moment (field-independent basis, Debye-Ang):
   XX=              2.2325   YY=             -0.5080   ZZ=             -1.7245
   XY=              1.5445   XZ=             -0.0033   YZ=             -3.7165
 Octapole moment (field-independent basis, Debye-Ang**2):
  XXX=            -17.0803  YYY=              8.1083  ZZZ=              0.0908  XYY=             -1.5165
  XXY=             -0.5263  XXZ=             -0.2823  XZZ=             -2.6189  YZZ=             -2.3771
  YYZ=             -1.2100  XYZ=             -0.2396
 Hexadecapole moment (field-independent basis, Debye-Ang**3):
 XXXX=           -616.0188 YYYY=           -340.9977 ZZZZ=           -113.9184 XXXY=             23.8491
 XXXZ=             11.9090 YYYX=              4.9201 YYYZ=             -2.4160 ZZZX=              0.5024
 ZZZY=              0.5111 XXYY=           -161.0866 XXZZ=           -119.3441 YYZZ=            -81.7492
 XXYZ=              1.2044 YYXZ=              2.6893 ZZXY=              3.6973
 N-N= 2.641044289019D+02 E-N=-1.249894746449D+03  KE= 3.070890918661D+02
 1\1\GINC-LINUXBMC0193\SP\UCCSD(T)-FC\Aug-CC-pVDZ\C4H11O2(2)\LK285148\1
 5-Jul-2016\0\\# ccsd(t,t1diag) aug-cc-pvdz geom=connectivity scf=(conv
 er=11,xqc)\\Title Card Required\\0,2\C,0,-2.179781,-0.736971,-0.141647
 \H,0,-2.682579,-1.207719,-0.984555\H,0,-2.417916,-1.282851,0.777959\H,
 0,-2.515508,0.2986,-0.041646\O,0,-0.778303,-0.800308,-0.413894\C,0,0.0
 06605,-0.260809,0.593966\H,0,-0.214436,-0.676644,1.581959\O,0,-0.04755
 ,1.119521,0.708366\C,0,0.330951,1.819651,-0.477005\H,0,1.361601,1.5777
 89,-0.753131\H,0,-0.329812,1.573473,-1.310866\H,0,0.253373,2.879348,-0
 .242936\H,0,1.218358,-0.640339,0.263469\C,0,2.472185,-1.081255,-0.1400
 73\H,0,3.174161,-0.36553,0.280267\H,0,2.427467,-1.076489,-1.225576\H,0
 ,2.552362,-2.077035,0.287842\\Version=ES64L-G09RevD.01\State=2-A\HF=-3
 07.5123716\MP2=-308.5126345\MP3=-308.5676431\MP4D=-308.5924332\MP4DQ=-
 308.5735601\PUHF=-307.5204614\PMP2-0=-308.5180642\PMP3-0=-308.5706974\
 MP4SDQ=-308.5843838\CCSD=-308.5845326\CCSD(T)=-308.6200358\S2=0.789023
 \S2-1=0.763141\S2A=0.750557\RMSD=7.206e-12\PG=C01 [X(C4H11O2)]\\@


 KINETICS       FACT
 ---------  =  -------
 MECHANISM     FICTION
 Job cpu time:       0 days 13 hours  1 minutes 19.8 seconds.
 File lengths (MBytes):  RWF=  14473 Int=      0 D2E=      0 Chk=      5 Scr=      1
 Normal termination of Gaussian 09 at Fri Jul 15 20:55:47 2016.
