Title Card Required                                                     
Freq      UB2PLYPD3-FC                                                6-311++G(d,p)       
Number of atoms                            I               17
Info1-9                                    I   N=           9
          44          44        1002           0           1         100
           6           2           1
Charge                                     I                0
Multiplicity                               I                2
Number of electrons                        I               51
Number of alpha electrons                  I               26
Number of beta electrons                   I               25
Number of basis functions                  I              209
Number of independent functions            I              209
Number of point charges in /Mol/           I                0
Number of translation vectors              I                0
Atomic numbers                             I   N=          17
           6           1           1           1           8           6
           1           8           6           1           1           1
           1           6           1           1           1
Nuclear charges                            R   N=          17
  6.00000000E+00  1.00000000E+00  1.00000000E+00  1.00000000E+00  8.00000000E+00
  6.00000000E+00  1.00000000E+00  8.00000000E+00  6.00000000E+00  1.00000000E+00
  1.00000000E+00  1.00000000E+00  1.00000000E+00  6.00000000E+00  1.00000000E+00
  1.00000000E+00  1.00000000E+00
Current cartesian coordinates              R   N=          51
 -4.11919001E+00 -1.39267368E+00 -2.67673380E-01 -5.06934054E+00 -2.28225759E+00
 -1.86053952E+00 -4.56919979E+00 -2.42423681E+00  1.47012851E+00 -4.75362105E+00
  5.64272634E-01 -7.86987459E-02 -1.47077960E+00 -1.51236347E+00 -7.82146751E-01
  1.24819603E-02 -4.92857877E-01  1.12243329E+00 -4.05224383E-01 -1.27867149E+00
  2.98946838E+00 -8.98566483E-02  2.11558798E+00  1.33861701E+00  6.25406160E-01
  3.43864261E+00 -9.01409392E-01  2.57305299E+00  2.98158996E+00 -1.42321088E+00
 -6.23253643E-01  2.97343245E+00 -2.47717865E+00  4.78806084E-01  5.44118008E+00
 -4.59082153E-01  2.30236314E+00 -1.21006580E+00  4.97883362E-01  4.67175187E+00
 -2.04327634E+00 -2.64700499E-01  5.99829515E+00 -6.90751984E-01  5.29628045E-01
  4.58724761E+00 -2.03426944E+00 -2.31600332E+00  4.82326452E+00 -3.92502638E+00
  5.43942789E-01
Force Field                                I                0
Int Atom Types                             I   N=          17
           0           0           0           0           0           0
           0           0           0           0           0           0
           0           0           0           0           0
MM charges                                 R   N=          17
  0.00000000E+00  0.00000000E+00  0.00000000E+00  0.00000000E+00  0.00000000E+00
  0.00000000E+00  0.00000000E+00  0.00000000E+00  0.00000000E+00  0.00000000E+00
  0.00000000E+00  0.00000000E+00  0.00000000E+00  0.00000000E+00  0.00000000E+00
  0.00000000E+00  0.00000000E+00
Integer atomic weights                     I   N=          17
          12           1           1           1          16          12
           1          16          12           1           1           1
           1          12           1           1           1
Real atomic weights                        R   N=          17
  1.20000000E+01  1.00782504E+00  1.00782504E+00  1.00782504E+00  1.59949146E+01
  1.20000000E+01  1.00782504E+00  1.59949146E+01  1.20000000E+01  1.00782504E+00
  1.00782504E+00  1.00782504E+00  1.00782504E+00  1.20000000E+01  1.00782504E+00
  1.00782504E+00  1.00782504E+00
Atom fragment info                         I   N=          17
           0           0           0           0           0           0
           0           0           0           0           0           0
           0           0           0           0           0
Atom residue num                           I   N=          17
           0           0           0           0           0           0
           0           0           0           0           0           0
           0           0           0           0           0
Nuclear spins                              I   N=          17
           0           1           1           1           0           0
           1           0           0           1           1           1
           1           0           1           1           1
Nuclear ZEff                               R   N=          17
 -3.60000000E+00 -1.00000000E+00 -1.00000000E+00 -1.00000000E+00 -5.60000000E+00
 -3.60000000E+00 -1.00000000E+00 -5.60000000E+00 -3.60000000E+00 -1.00000000E+00
 -1.00000000E+00 -1.00000000E+00 -1.00000000E+00 -3.60000000E+00 -1.00000000E+00
 -1.00000000E+00 -1.00000000E+00
Nuclear ZNuc                               R   N=          17
  6.00000000E+00  1.00000000E+00  1.00000000E+00  1.00000000E+00  8.00000000E+00
  6.00000000E+00  1.00000000E+00  8.00000000E+00  6.00000000E+00  1.00000000E+00
  1.00000000E+00  1.00000000E+00  1.00000000E+00  6.00000000E+00  1.00000000E+00
  1.00000000E+00  1.00000000E+00
Nuclear QMom                               R   N=          17
  0.00000000E+00  0.00000000E+00  0.00000000E+00  0.00000000E+00  0.00000000E+00
  0.00000000E+00  0.00000000E+00  0.00000000E+00  0.00000000E+00  0.00000000E+00
  0.00000000E+00  0.00000000E+00  0.00000000E+00  0.00000000E+00  0.00000000E+00
  0.00000000E+00  0.00000000E+00
Nuclear GFac                               R   N=          17
  0.00000000E+00  2.79284600E+00  2.79284600E+00  2.79284600E+00  0.00000000E+00
  0.00000000E+00  2.79284600E+00  0.00000000E+00  0.00000000E+00  2.79284600E+00
  2.79284600E+00  2.79284600E+00  2.79284600E+00  0.00000000E+00  2.79284600E+00
  2.79284600E+00  2.79284600E+00
MicOpt                                     I   N=          17
          -1          -1          -1          -1          -1          -1
          -1          -1          -1          -1          -1          -1
          -1          -1          -1          -1          -1
Number of contracted shells                I               91
Number of primitive shells                 I              155
Pure/Cartesian d shells                    I                0
Pure/Cartesian f shells                    I                0
Highest angular momentum                   I                2
Largest degree of contraction              I                6
Shell types                                I   N=          91
           0          -1          -1          -1          -1          -2
           0           0           0           0           1           0
           0           0           0           1           0           0
           0           0           1           0          -1          -1
          -1          -1          -2           0          -1          -1
          -1          -1          -2           0           0           0
           0           1           0          -1          -1          -1
          -1          -2           0          -1          -1          -1
          -1          -2           0           0           0           0
           1           0           0           0           0           1
           0           0           0           0           1           0
           0           0           0           1           0          -1
          -1          -1          -1          -2           0           0
           0           0           1           0           0           0
           0           1           0           0           0           0
           1
Number of primitives per shell             I   N=          91
           6           3           1           1           1           1
           3           1           1           1           1           3
           1           1           1           1           3           1
           1           1           1           6           3           1
           1           1           1           6           3           1
           1           1           1           3           1           1
           1           1           6           3           1           1
           1           1           6           3           1           1
           1           1           3           1           1           1
           1           3           1           1           1           1
           3           1           1           1           1           3
           1           1           1           1           6           3
           1           1           1           1           3           1
           1           1           1           3           1           1
           1           1           3           1           1           1
           1
Shell to atom map                          I   N=          91
           1           1           1           1           1           1
           2           2           2           2           2           3
           3           3           3           3           4           4
           4           4           4           5           5           5
           5           5           5           6           6           6
           6           6           6           7           7           7
           7           7           8           8           8           8
           8           8           9           9           9           9
           9           9          10          10          10          10
          10          11          11          11          11          11
          12          12          12          12          12          13
          13          13          13          13          14          14
          14          14          14          14          15          15
          15          15          15          16          16          16
          16          16          17          17          17          17
          17
Primitive exponents                        R   N=         155
  4.56324000E+03  6.82024000E+02  1.54973000E+02  4.44553000E+01  1.30290000E+01
  1.82773000E+00  2.09642000E+01  4.80331000E+00  1.45933000E+00  4.83456000E-01
  1.45585000E-01  4.38000000E-02  6.26000000E-01  3.38650000E+01  5.09479000E+00
  1.15879000E+00  3.25840000E-01  1.02741000E-01  3.60000000E-02  7.50000000E-01
  3.38650000E+01  5.09479000E+00  1.15879000E+00  3.25840000E-01  1.02741000E-01
  3.60000000E-02  7.50000000E-01  3.38650000E+01  5.09479000E+00  1.15879000E+00
  3.25840000E-01  1.02741000E-01  3.60000000E-02  7.50000000E-01  8.58850000E+03
  1.29723000E+03  2.99296000E+02  8.73771000E+01  2.56789000E+01  3.74004000E+00
  4.21175000E+01  9.62837000E+00  2.85332000E+00  9.05661000E-01  2.55611000E-01
  8.45000000E-02  1.29200000E+00  4.56324000E+03  6.82024000E+02  1.54973000E+02
  4.44553000E+01  1.30290000E+01  1.82773000E+00  2.09642000E+01  4.80331000E+00
  1.45933000E+00  4.83456000E-01  1.45585000E-01  4.38000000E-02  6.26000000E-01
  3.38650000E+01  5.09479000E+00  1.15879000E+00  3.25840000E-01  1.02741000E-01
  3.60000000E-02  7.50000000E-01  8.58850000E+03  1.29723000E+03  2.99296000E+02
  8.73771000E+01  2.56789000E+01  3.74004000E+00  4.21175000E+01  9.62837000E+00
  2.85332000E+00  9.05661000E-01  2.55611000E-01  8.45000000E-02  1.29200000E+00
  4.56324000E+03  6.82024000E+02  1.54973000E+02  4.44553000E+01  1.30290000E+01
  1.82773000E+00  2.09642000E+01  4.80331000E+00  1.45933000E+00  4.83456000E-01
  1.45585000E-01  4.38000000E-02  6.26000000E-01  3.38650000E+01  5.09479000E+00
  1.15879000E+00  3.25840000E-01  1.02741000E-01  3.60000000E-02  7.50000000E-01
  3.38650000E+01  5.09479000E+00  1.15879000E+00  3.25840000E-01  1.02741000E-01
  3.60000000E-02  7.50000000E-01  3.38650000E+01  5.09479000E+00  1.15879000E+00
  3.25840000E-01  1.02741000E-01  3.60000000E-02  7.50000000E-01  3.38650000E+01
  5.09479000E+00  1.15879000E+00  3.25840000E-01  1.02741000E-01  3.60000000E-02
  7.50000000E-01  4.56324000E+03  6.82024000E+02  1.54973000E+02  4.44553000E+01
  1.30290000E+01  1.82773000E+00  2.09642000E+01  4.80331000E+00  1.45933000E+00
  4.83456000E-01  1.45585000E-01  4.38000000E-02  6.26000000E-01  3.38650000E+01
  5.09479000E+00  1.15879000E+00  3.25840000E-01  1.02741000E-01  3.60000000E-02
  7.50000000E-01  3.38650000E+01  5.09479000E+00  1.15879000E+00  3.25840000E-01
  1.02741000E-01  3.60000000E-02  7.50000000E-01  3.38650000E+01  5.09479000E+00
  1.15879000E+00  3.25840000E-01  1.02741000E-01  3.60000000E-02  7.50000000E-01
Contraction coefficients                   R   N=         155
  1.96665025E-03  1.52306019E-02  7.61269097E-02  2.60801033E-01  6.16462078E-01
  2.21006028E-01  1.14660081E-01  9.19999648E-01 -3.03068213E-03  1.00000000E+00
  1.00000000E+00  1.00000000E+00  1.00000000E+00  2.54938145E-02  1.90373109E-01
  8.52161486E-01  1.00000000E+00  1.00000000E+00  1.00000000E+00  1.00000000E+00
  2.54938145E-02  1.90373109E-01  8.52161486E-01  1.00000000E+00  1.00000000E+00
  1.00000000E+00  1.00000000E+00  2.54938145E-02  1.90373109E-01  8.52161486E-01
  1.00000000E+00  1.00000000E+00  1.00000000E+00  1.00000000E+00  1.89515008E-03
  1.43859006E-02  7.07320031E-02  2.40001011E-01  5.94797026E-01  2.80802012E-01
  1.13889012E-01  9.20811101E-01 -3.27447036E-03  1.00000000E+00  1.00000000E+00
  1.00000000E+00  1.00000000E+00  1.96665025E-03  1.52306019E-02  7.61269097E-02
  2.60801033E-01  6.16462078E-01  2.21006028E-01  1.14660081E-01  9.19999648E-01
 -3.03068213E-03  1.00000000E+00  1.00000000E+00  1.00000000E+00  1.00000000E+00
  2.54938145E-02  1.90373109E-01  8.52161486E-01  1.00000000E+00  1.00000000E+00
  1.00000000E+00  1.00000000E+00  1.89515008E-03  1.43859006E-02  7.07320031E-02
  2.40001011E-01  5.94797026E-01  2.80802012E-01  1.13889012E-01  9.20811101E-01
 -3.27447036E-03  1.00000000E+00  1.00000000E+00  1.00000000E+00  1.00000000E+00
  1.96665025E-03  1.52306019E-02  7.61269097E-02  2.60801033E-01  6.16462078E-01
  2.21006028E-01  1.14660081E-01  9.19999648E-01 -3.03068213E-03  1.00000000E+00
  1.00000000E+00  1.00000000E+00  1.00000000E+00  2.54938145E-02  1.90373109E-01
  8.52161486E-01  1.00000000E+00  1.00000000E+00  1.00000000E+00  1.00000000E+00
  2.54938145E-02  1.90373109E-01  8.52161486E-01  1.00000000E+00  1.00000000E+00
  1.00000000E+00  1.00000000E+00  2.54938145E-02  1.90373109E-01  8.52161486E-01
  1.00000000E+00  1.00000000E+00  1.00000000E+00  1.00000000E+00  2.54938145E-02
  1.90373109E-01  8.52161486E-01  1.00000000E+00  1.00000000E+00  1.00000000E+00
  1.00000000E+00  1.96665025E-03  1.52306019E-02  7.61269097E-02  2.60801033E-01
  6.16462078E-01  2.21006028E-01  1.14660081E-01  9.19999648E-01 -3.03068213E-03
  1.00000000E+00  1.00000000E+00  1.00000000E+00  1.00000000E+00  2.54938145E-02
  1.90373109E-01  8.52161486E-01  1.00000000E+00  1.00000000E+00  1.00000000E+00
  1.00000000E+00  2.54938145E-02  1.90373109E-01  8.52161486E-01  1.00000000E+00
  1.00000000E+00  1.00000000E+00  1.00000000E+00  2.54938145E-02  1.90373109E-01
  8.52161486E-01  1.00000000E+00  1.00000000E+00  1.00000000E+00  1.00000000E+00
P(S=P) Contraction coefficients            R   N=         155
  0.00000000E+00  0.00000000E+00  0.00000000E+00  0.00000000E+00  0.00000000E+00
  0.00000000E+00  4.02486927E-02  2.37593957E-01  8.15853851E-01  1.00000000E+00
  1.00000000E+00  1.00000000E+00  0.00000000E+00  0.00000000E+00  0.00000000E+00
  0.00000000E+00  0.00000000E+00  0.00000000E+00  0.00000000E+00  0.00000000E+00
  0.00000000E+00  0.00000000E+00  0.00000000E+00  0.00000000E+00  0.00000000E+00
  0.00000000E+00  0.00000000E+00  0.00000000E+00  0.00000000E+00  0.00000000E+00
  0.00000000E+00  0.00000000E+00  0.00000000E+00  0.00000000E+00  0.00000000E+00
  0.00000000E+00  0.00000000E+00  0.00000000E+00  0.00000000E+00  0.00000000E+00
  3.65113974E-02  2.37152983E-01  8.19701941E-01  1.00000000E+00  1.00000000E+00
  1.00000000E+00  0.00000000E+00  0.00000000E+00  0.00000000E+00  0.00000000E+00
  0.00000000E+00  0.00000000E+00  0.00000000E+00  4.02486927E-02  2.37593957E-01
  8.15853851E-01  1.00000000E+00  1.00000000E+00  1.00000000E+00  0.00000000E+00
  0.00000000E+00  0.00000000E+00  0.00000000E+00  0.00000000E+00  0.00000000E+00
  0.00000000E+00  0.00000000E+00  0.00000000E+00  0.00000000E+00  0.00000000E+00
  0.00000000E+00  0.00000000E+00  0.00000000E+00  3.65113974E-02  2.37152983E-01
  8.19701941E-01  1.00000000E+00  1.00000000E+00  1.00000000E+00  0.00000000E+00
  0.00000000E+00  0.00000000E+00  0.00000000E+00  0.00000000E+00  0.00000000E+00
  0.00000000E+00  4.02486927E-02  2.37593957E-01  8.15853851E-01  1.00000000E+00
  1.00000000E+00  1.00000000E+00  0.00000000E+00  0.00000000E+00  0.00000000E+00
  0.00000000E+00  0.00000000E+00  0.00000000E+00  0.00000000E+00  0.00000000E+00
  0.00000000E+00  0.00000000E+00  0.00000000E+00  0.00000000E+00  0.00000000E+00
  0.00000000E+00  0.00000000E+00  0.00000000E+00  0.00000000E+00  0.00000000E+00
  0.00000000E+00  0.00000000E+00  0.00000000E+00  0.00000000E+00  0.00000000E+00
  0.00000000E+00  0.00000000E+00  0.00000000E+00  0.00000000E+00  0.00000000E+00
  0.00000000E+00  0.00000000E+00  0.00000000E+00  0.00000000E+00  0.00000000E+00
  0.00000000E+00  0.00000000E+00  4.02486927E-02  2.37593957E-01  8.15853851E-01
  1.00000000E+00  1.00000000E+00  1.00000000E+00  0.00000000E+00  0.00000000E+00
  0.00000000E+00  0.00000000E+00  0.00000000E+00  0.00000000E+00  0.00000000E+00
  0.00000000E+00  0.00000000E+00  0.00000000E+00  0.00000000E+00  0.00000000E+00
  0.00000000E+00  0.00000000E+00  0.00000000E+00  0.00000000E+00  0.00000000E+00
  0.00000000E+00  0.00000000E+00  0.00000000E+00  0.00000000E+00  0.00000000E+00
Coordinates of each shell                  R   N=         273
 -4.11919001E+00 -1.39267368E+00 -2.67673380E-01 -4.11919001E+00 -1.39267368E+00
 -2.67673380E-01 -4.11919001E+00 -1.39267368E+00 -2.67673380E-01 -4.11919001E+00
 -1.39267368E+00 -2.67673380E-01 -4.11919001E+00 -1.39267368E+00 -2.67673380E-01
 -4.11919001E+00 -1.39267368E+00 -2.67673380E-01 -5.06934054E+00 -2.28225759E+00
 -1.86053952E+00 -5.06934054E+00 -2.28225759E+00 -1.86053952E+00 -5.06934054E+00
 -2.28225759E+00 -1.86053952E+00 -5.06934054E+00 -2.28225759E+00 -1.86053952E+00
 -5.06934054E+00 -2.28225759E+00 -1.86053952E+00 -4.56919979E+00 -2.42423681E+00
  1.47012851E+00 -4.56919979E+00 -2.42423681E+00  1.47012851E+00 -4.56919979E+00
 -2.42423681E+00  1.47012851E+00 -4.56919979E+00 -2.42423681E+00  1.47012851E+00
 -4.56919979E+00 -2.42423681E+00  1.47012851E+00 -4.75362105E+00  5.64272634E-01
 -7.86987459E-02 -4.75362105E+00  5.64272634E-01 -7.86987459E-02 -4.75362105E+00
  5.64272634E-01 -7.86987459E-02 -4.75362105E+00  5.64272634E-01 -7.86987459E-02
 -4.75362105E+00  5.64272634E-01 -7.86987459E-02 -1.47077960E+00 -1.51236347E+00
 -7.82146751E-01 -1.47077960E+00 -1.51236347E+00 -7.82146751E-01 -1.47077960E+00
 -1.51236347E+00 -7.82146751E-01 -1.47077960E+00 -1.51236347E+00 -7.82146751E-01
 -1.47077960E+00 -1.51236347E+00 -7.82146751E-01 -1.47077960E+00 -1.51236347E+00
 -7.82146751E-01  1.24819603E-02 -4.92857877E-01  1.12243329E+00  1.24819603E-02
 -4.92857877E-01  1.12243329E+00  1.24819603E-02 -4.92857877E-01  1.12243329E+00
  1.24819603E-02 -4.92857877E-01  1.12243329E+00  1.24819603E-02 -4.92857877E-01
  1.12243329E+00  1.24819603E-02 -4.92857877E-01  1.12243329E+00 -4.05224383E-01
 -1.27867149E+00  2.98946838E+00 -4.05224383E-01 -1.27867149E+00  2.98946838E+00
 -4.05224383E-01 -1.27867149E+00  2.98946838E+00 -4.05224383E-01 -1.27867149E+00
  2.98946838E+00 -4.05224383E-01 -1.27867149E+00  2.98946838E+00 -8.98566483E-02
  2.11558798E+00  1.33861701E+00 -8.98566483E-02  2.11558798E+00  1.33861701E+00
 -8.98566483E-02  2.11558798E+00  1.33861701E+00 -8.98566483E-02  2.11558798E+00
  1.33861701E+00 -8.98566483E-02  2.11558798E+00  1.33861701E+00 -8.98566483E-02
  2.11558798E+00  1.33861701E+00  6.25406160E-01  3.43864261E+00 -9.01409392E-01
  6.25406160E-01  3.43864261E+00 -9.01409392E-01  6.25406160E-01  3.43864261E+00
 -9.01409392E-01  6.25406160E-01  3.43864261E+00 -9.01409392E-01  6.25406160E-01
  3.43864261E+00 -9.01409392E-01  6.25406160E-01  3.43864261E+00 -9.01409392E-01
  2.57305299E+00  2.98158996E+00 -1.42321088E+00  2.57305299E+00  2.98158996E+00
 -1.42321088E+00  2.57305299E+00  2.98158996E+00 -1.42321088E+00  2.57305299E+00
  2.98158996E+00 -1.42321088E+00  2.57305299E+00  2.98158996E+00 -1.42321088E+00
 -6.23253643E-01  2.97343245E+00 -2.47717865E+00 -6.23253643E-01  2.97343245E+00
 -2.47717865E+00 -6.23253643E-01  2.97343245E+00 -2.47717865E+00 -6.23253643E-01
  2.97343245E+00 -2.47717865E+00 -6.23253643E-01  2.97343245E+00 -2.47717865E+00
  4.78806084E-01  5.44118008E+00 -4.59082153E-01  4.78806084E-01  5.44118008E+00
 -4.59082153E-01  4.78806084E-01  5.44118008E+00 -4.59082153E-01  4.78806084E-01
  5.44118008E+00 -4.59082153E-01  4.78806084E-01  5.44118008E+00 -4.59082153E-01
  2.30236314E+00 -1.21006580E+00  4.97883362E-01  2.30236314E+00 -1.21006580E+00
  4.97883362E-01  2.30236314E+00 -1.21006580E+00  4.97883362E-01  2.30236314E+00
 -1.21006580E+00  4.97883362E-01  2.30236314E+00 -1.21006580E+00  4.97883362E-01
  4.67175187E+00 -2.04327634E+00 -2.64700499E-01  4.67175187E+00 -2.04327634E+00
 -2.64700499E-01  4.67175187E+00 -2.04327634E+00 -2.64700499E-01  4.67175187E+00
 -2.04327634E+00 -2.64700499E-01  4.67175187E+00 -2.04327634E+00 -2.64700499E-01
  4.67175187E+00 -2.04327634E+00 -2.64700499E-01  5.99829515E+00 -6.90751984E-01
  5.29628045E-01  5.99829515E+00 -6.90751984E-01  5.29628045E-01  5.99829515E+00
 -6.90751984E-01  5.29628045E-01  5.99829515E+00 -6.90751984E-01  5.29628045E-01
  5.99829515E+00 -6.90751984E-01  5.29628045E-01  4.58724761E+00 -2.03426944E+00
 -2.31600332E+00  4.58724761E+00 -2.03426944E+00 -2.31600332E+00  4.58724761E+00
 -2.03426944E+00 -2.31600332E+00  4.58724761E+00 -2.03426944E+00 -2.31600332E+00
  4.58724761E+00 -2.03426944E+00 -2.31600332E+00  4.82326452E+00 -3.92502638E+00
  5.43942789E-01  4.82326452E+00 -3.92502638E+00  5.43942789E-01  4.82326452E+00
 -3.92502638E+00  5.43942789E-01  4.82326452E+00 -3.92502638E+00  5.43942789E-01
  4.82326452E+00 -3.92502638E+00  5.43942789E-01
Constraint Structure                       R   N=          51
 -4.11919001E+00 -1.39267368E+00 -2.67673380E-01 -5.06934054E+00 -2.28225759E+00
 -1.86053952E+00 -4.56919979E+00 -2.42423681E+00  1.47012851E+00 -4.75362105E+00
  5.64272634E-01 -7.86987459E-02 -1.47077960E+00 -1.51236347E+00 -7.82146751E-01
  1.24819603E-02 -4.92857877E-01  1.12243329E+00 -4.05224383E-01 -1.27867149E+00
  2.98946838E+00 -8.98566483E-02  2.11558798E+00  1.33861701E+00  6.25406160E-01
  3.43864261E+00 -9.01409392E-01  2.57305299E+00  2.98158996E+00 -1.42321088E+00
 -6.23253643E-01  2.97343245E+00 -2.47717865E+00  4.78806084E-01  5.44118008E+00
 -4.59082153E-01  2.30236314E+00 -1.21006580E+00  4.97883362E-01  4.67175187E+00
 -2.04327634E+00 -2.64700499E-01  5.99829515E+00 -6.90751984E-01  5.29628045E-01
  4.58724761E+00 -2.03426944E+00 -2.31600332E+00  4.82326452E+00 -3.92502638E+00
  5.43942789E-01
Num ILSW                                   I              100
ILSW                                       I   N=         100
           1           0           0           0           2           0
           0           0           0           0         419          -1
      199974           0           0           0           2           0
           0           0           1           0           1           0
           1           0           0           0           0           0
           0           0      100000           0          -1           0
           0           0           0           0           0           0
           0           0           0           1           1           0
           0           0           1           0           0           0
           0           0         141          41           0           0
           0           0          60           0           0           0
           0           0           0           0           0           0
           0           0           0           0           0           0
           0           0           0           0           0           0
           0           0           0           0           0           0
           0           0           0           0           0           0
           0           0           0           0
Num RLSW                                   I               41
RLSW                                       R   N=          41
  4.70000000E-01  4.70000000E-01  7.30000000E-01  7.30000000E-01  5.30000000E-01
  0.00000000E+00  0.00000000E+00  1.00000000E+00  0.00000000E+00  0.00000000E+00
  0.00000000E+00  0.00000000E+00  1.00000000E+00  0.00000000E+00  0.00000000E+00
  0.00000000E+00  0.00000000E+00  1.00000000E+00  0.00000000E+00  0.00000000E+00
  0.00000000E+00  0.00000000E+00  1.00000000E+00  0.00000000E+00  0.00000000E+00
  0.00000000E+00  0.00000000E+00  1.00000000E+00  0.00000000E+00  0.00000000E+00
  0.00000000E+00  0.00000000E+00  1.00000000E+00  0.00000000E+00  0.00000000E+00
  0.00000000E+00  0.00000000E+00  0.00000000E+00  2.70000000E-01  2.70000000E-01
  0.00000000E+00
MxBond                                     I                4
NBond                                      I   N=          17
           4           1           1           1           2           4
           1           2           4           1           1           1
           2           4           1           1           1
IBond                                      I   N=          68
           2           3           4           5           1           0
           0           0           1           0           0           0
           1           0           0           0           1           6
           0           0           5           7           8          13
           6           0           0           0           6           9
           0           0           8          10          11          12
           9           0           0           0           9           0
           0           0           9           0           0           0
           6          14           0           0          13          15
          16          17          14           0           0           0
          14           0           0           0          14           0
           0           0
RBond                                      R   N=          68
  1.00000000E+00  1.00000000E+00  1.00000000E+00  1.00000000E+00  1.00000000E+00
  0.00000000E+00  0.00000000E+00  0.00000000E+00  1.00000000E+00  0.00000000E+00
  0.00000000E+00  0.00000000E+00  1.00000000E+00  0.00000000E+00  0.00000000E+00
  0.00000000E+00  1.00000000E+00  1.00000000E+00  0.00000000E+00  0.00000000E+00
  1.00000000E+00  1.00000000E+00  1.00000000E+00  1.00000000E-01  1.00000000E+00
  0.00000000E+00  0.00000000E+00  0.00000000E+00  1.00000000E+00  1.00000000E+00
  0.00000000E+00  0.00000000E+00  1.00000000E+00  1.00000000E+00  1.00000000E+00
  1.00000000E+00  1.00000000E+00  0.00000000E+00  0.00000000E+00  0.00000000E+00
  1.00000000E+00  0.00000000E+00  0.00000000E+00  0.00000000E+00  1.00000000E+00
  0.00000000E+00  0.00000000E+00  0.00000000E+00  1.00000000E-01  1.00000000E-01
  0.00000000E+00  0.00000000E+00  1.00000000E-01  1.00000000E+00  1.00000000E+00
  1.00000000E+00  1.00000000E+00  0.00000000E+00  0.00000000E+00  0.00000000E+00
  1.00000000E+00  0.00000000E+00  0.00000000E+00  0.00000000E+00  1.00000000E+00
  0.00000000E+00  0.00000000E+00  0.00000000E+00
Virial Ratio                               R      2.002768815124265E+00
SCF Energy                                 R     -3.088256080391299E+02
MP2 Energy                                 R     -3.091615404860793E+02
Total Energy                               R     -3.091615404860793E+02
Post-SCF wavefunction norm                 R      1.712850803996400E+00
S**2                                       R      7.664820106649231E-01
S**2 after annihilation                    R      7.501043301310181E-01
RMS Force                                  R      1.558287167212063E-08
External E-field                           R   N=          35
  0.00000000E+00  0.00000000E+00  0.00000000E+00  0.00000000E+00  0.00000000E+00
  0.00000000E+00  0.00000000E+00  0.00000000E+00  0.00000000E+00  0.00000000E+00
  0.00000000E+00  0.00000000E+00  0.00000000E+00  0.00000000E+00  0.00000000E+00
  0.00000000E+00  0.00000000E+00  0.00000000E+00  0.00000000E+00  0.00000000E+00
  0.00000000E+00  0.00000000E+00  0.00000000E+00  0.00000000E+00  0.00000000E+00
  0.00000000E+00  0.00000000E+00  0.00000000E+00  0.00000000E+00  0.00000000E+00
  0.00000000E+00  0.00000000E+00  0.00000000E+00  0.00000000E+00  0.00000000E+00
IOpCl                                      I                1
IROHF                                      I                0
Alpha Orbital Energies                     R   N=         209
 -1.97393162E+01 -1.97363889E+01 -1.07131544E+01 -1.06615689E+01 -1.06578284E+01
 -1.06072016E+01 -1.22604682E+00 -1.15947224E+00 -8.46284657E-01 -8.04348683E-01
 -7.94934864E-01 -7.03105318E-01 -5.90315914E-01 -5.85221143E-01 -5.83359388E-01
 -5.18253563E-01 -5.06454212E-01 -4.89303120E-01 -4.70157593E-01 -4.68868527E-01
 -4.56618088E-01 -4.37329273E-01 -3.97564300E-01 -3.65282146E-01 -3.53627908E-01
 -2.37690467E-01  1.47722673E-02  2.71082965E-02  3.15662185E-02  3.99659575E-02
  5.50872978E-02  5.81608223E-02  6.29540217E-02  6.69207231E-02  7.22625408E-02
  8.66683894E-02  9.10547346E-02  1.01284398E-01  1.11071315E-01  1.24682083E-01
  1.27032808E-01  1.37080603E-01  1.43450078E-01  1.47769360E-01  1.52934257E-01
  1.58070933E-01  1.60210904E-01  1.68815569E-01  1.77929453E-01  1.80670415E-01
  1.87584965E-01  1.92310963E-01  2.15965243E-01  2.33038962E-01  2.37560218E-01