 Entering Gaussian System, Link 0=/usr/local_rwth/sw/gaussian/LINUX_emt64/g09.d01_bin/g09
 Input=DMM+CH32_TS_S6.com
 Output=DMM+CH32_TS_S6.log
 Initial command:
 /usr/local_rwth/sw/gaussian/LINUX_emt64/g09.d01_bin/l1.exe "/ntmp/Gau-15472.inp" -scrdir="/ntmp/"
 Entering Link 1 = /usr/local_rwth/sw/gaussian/LINUX_emt64/g09.d01_bin/l1.exe PID=     15473.
  
 Copyright (c) 1988,1990,1992,1993,1995,1998,2003,2009,2013,
            Gaussian, Inc.  All Rights Reserved.
  
 This is part of the Gaussian(R) 09 program.  It is based on
 the Gaussian(R) 03 system (copyright 2003, Gaussian, Inc.),
 the Gaussian(R) 98 system (copyright 1998, Gaussian, Inc.),
 the Gaussian(R) 94 system (copyright 1995, Gaussian, Inc.),
 the Gaussian 92(TM) system (copyright 1992, Gaussian, Inc.),
 the Gaussian 90(TM) system (copyright 1990, Gaussian, Inc.),
 the Gaussian 88(TM) system (copyright 1988, Gaussian, Inc.),
 the Gaussian 86(TM) system (copyright 1986, Carnegie Mellon
 University), and the Gaussian 82(TM) system (copyright 1983,
 Carnegie Mellon University). Gaussian is a federally registered
 trademark of Gaussian, Inc.
  
 This software contains proprietary and confidential information,
 including trade secrets, belonging to Gaussian, Inc.
  
 This software is provided under written license and may be
 used, copied, transmitted, or stored only in accord with that
 written license.
  
 The following legend is applicable only to US Government
 contracts under FAR:
  
                    RESTRICTED RIGHTS LEGEND
  
 Use, reproduction and disclosure by the US Government is
 subject to restrictions as set forth in subparagraphs (a)
 and (c) of the Commercial Computer Software - Restricted
 Rights clause in FAR 52.227-19.
  
 Gaussian, Inc.
 340 Quinnipiac St., Bldg. 40, Wallingford CT 06492
  
  
 ---------------------------------------------------------------
 Warning -- This program may not be used in any manner that
 competes with the business of Gaussian, Inc. or will provide
 assistance to any competitor of Gaussian, Inc.  The licensee
 of this program is prohibited from giving any competitor of
 Gaussian, Inc. access to this program.  By using this program,
 the user acknowledges that Gaussian, Inc. is engaged in the
 business of creating and licensing software in the field of
 computational chemistry and represents and warrants to the
 licensee that it is not a competitor of Gaussian, Inc. and that
 it will not use this program in any manner prohibited above.
 ---------------------------------------------------------------
  

 Cite this work as:
 Gaussian 09, Revision D.01,
 M. J. Frisch, G. W. Trucks, H. B. Schlegel, G. E. Scuseria, 
 M. A. Robb, J. R. Cheeseman, G. Scalmani, V. Barone, B. Mennucci, 
 G. A. Petersson, H. Nakatsuji, M. Caricato, X. Li, H. P. Hratchian, 
 A. F. Izmaylov, J. Bloino, G. Zheng, J. L. Sonnenberg, M. Hada, 
 M. Ehara, K. Toyota, R. Fukuda, J. Hasegawa, M. Ishida, T. Nakajima, 
 Y. Honda, O. Kitao, H. Nakai, T. Vreven, J. A. Montgomery, Jr., 
 J. E. Peralta, F. Ogliaro, M. Bearpark, J. J. Heyd, E. Brothers, 
 K. N. Kudin, V. N. Staroverov, T. Keith, R. Kobayashi, J. Normand, 
 K. Raghavachari, A. Rendell, J. C. Burant, S. S. Iyengar, J. Tomasi, 
 M. Cossi, N. Rega, J. M. Millam, M. Klene, J. E. Knox, J. B. Cross, 
 V. Bakken, C. Adamo, J. Jaramillo, R. Gomperts, R. E. Stratmann, 
 O. Yazyev, A. J. Austin, R. Cammi, C. Pomelli, J. W. Ochterski, 
 R. L. Martin, K. Morokuma, V. G. Zakrzewski, G. A. Voth, 
 P. Salvador, J. J. Dannenberg, S. Dapprich, A. D. Daniels, 
 O. Farkas, J. B. Foresman, J. V. Ortiz, J. Cioslowski, 
 and D. J. Fox, Gaussian, Inc., Wallingford CT, 2013.
 
 ******************************************
 Gaussian 09:  ES64L-G09RevD.01 24-Apr-2013
                 4-Aug-2016 
 ******************************************
 %chk=DMM+CH32_TS_S6.chk
 %mem=2000MW
 %nprocshared=12
 Will use up to   12 processors via shared memory.
 ----------------------------------------------------------------------
 # opt=(TS, calcfc, noeigentest, modredundant) 6-311++g(d,p) geom=conne
 ctivity b2plypd3 int=grid=199974 scf=(conver=11,xqc)
 ----------------------------------------------------------------------
 1/5=1,10=4,11=1,18=120,38=1,57=2/1,3;
 2/9=110,12=2,17=6,18=5,40=1/2;
 3/5=4,6=6,7=1111,11=9,16=1,25=1,30=1,71=2,74=-60,75=199974,140=1/1,2,3;
 4//1;
 5/5=2,6=11,8=3,13=1,38=5/2,8;
 8/6=3,8=1,10=2,19=11,30=-1/1;
 9/15=3,16=-3/6;
 11/6=1,8=1,15=11,17=12,24=-1,27=1,28=-2,29=300,32=6,42=3/1,2,10;
 10/6=2,21=1/2;
 8/6=4,8=1,10=2,19=11,30=-1/11,4;
 10/5=1,20=4/2;
 11/12=2,14=11,16=1,17=2,28=-2,42=3/2,10,12;
 6/7=2,8=2,9=2,10=2/1;
 7/10=1,12=2,25=1,44=2/1,2,3,16;
 1/5=1,10=4,11=1,18=20/3(2);
 2/9=110/2;
 99//99;
 2/9=110/2;
 3/5=4,6=6,7=1111,11=9,16=1,25=1,30=1,71=1,74=-60,75=199974/1,2,3;
 4/5=5,16=3,69=1/1;
 5/5=2,6=11,8=3,13=1,38=5/2,8;
 8/6=4,10=2/1;
 9/15=2,16=-3/6;
 10/5=1/2;
 7/12=2/1,2,3,16;
 1/5=1,11=1,18=20/3(-8);
 2/9=110/2;
 6/7=2,8=2,9=2,10=2/1;
 99//99;
 -------------------
 Title Card Required
 -------------------
 Symbolic Z-matrix:
 Charge =  0 Multiplicity = 2
 C                    -2.17978  -0.73697  -0.14165 
 H                    -2.68258  -1.20772  -0.98456 
 H                    -2.41792  -1.28285   0.77796 
 H                    -2.51551   0.2986   -0.04165 
 O                    -0.7783   -0.80031  -0.41389 
 C                     0.00661  -0.26081   0.59397 
 H                    -0.21444  -0.67664   1.58196 
 O                    -0.04755   1.11952   0.70837 
 C                     0.33095   1.81965  -0.47701 
 H                     1.3616    1.57779  -0.75313 
 H                    -0.32981   1.57347  -1.31087 
 H                     0.25337   2.87935  -0.24294 
 H                     1.21836  -0.64034   0.26347 
 C                     2.47219  -1.08126  -0.14007 
 H                     3.17416  -0.36553   0.28027 
 H                     2.42747  -1.07649  -1.22558 
 H                     2.55236  -2.07703   0.28784 
 
 Add virtual bond connecting atoms H13        and C6         Dist= 2.48D+00.
 Add virtual bond connecting atoms C14        and H13        Dist= 2.62D+00.
 The following ModRedundant input section has been read:
 D      6       8       9      10 S  24 15.000                               

 
 GradGradGradGradGradGradGradGradGradGradGradGradGradGradGradGradGradGrad
 Berny optimization.
 Initialization pass.
                           ----------------------------
                           !    Initial Parameters    !
                           ! (Angstroms and Degrees)  !
 --------------------------                            --------------------------
 ! Name  Definition              Value          Derivative Info.                !
 --------------------------------------------------------------------------------
 ! R1    R(1,2)                  1.0885         calculate D2E/DX2 analytically  !
 ! R2    R(1,3)                  1.0956         calculate D2E/DX2 analytically  !
 ! R3    R(1,4)                  1.0932         calculate D2E/DX2 analytically  !
 ! R4    R(1,5)                  1.4291         calculate D2E/DX2 analytically  !
 ! R5    R(5,6)                  1.3867         calculate D2E/DX2 analytically  !
 ! R6    R(6,7)                  1.0945         calculate D2E/DX2 analytically  !
 ! R7    R(6,8)                  1.3861         calculate D2E/DX2 analytically  !
 ! R8    R(6,13)                 1.3121         calculate D2E/DX2 analytically  !
 ! R9    R(8,9)                  1.4278         calculate D2E/DX2 analytically  !
 ! R10   R(9,10)                 1.0941         calculate D2E/DX2 analytically  !
 ! R11   R(9,11)                 1.092          calculate D2E/DX2 analytically  !
 ! R12   R(9,12)                 1.088          calculate D2E/DX2 analytically  !
 ! R13   R(13,14)                1.389          calculate D2E/DX2 analytically  !
 ! R14   R(14,15)                1.0871         calculate D2E/DX2 analytically  !
 ! R15   R(14,16)                1.0864         calculate D2E/DX2 analytically  !
 ! R16   R(14,17)                1.0868         calculate D2E/DX2 analytically  !
 ! A1    A(2,1,3)              109.5171         calculate D2E/DX2 analytically  !
 ! A2    A(2,1,4)              109.794          calculate D2E/DX2 analytically  !
 ! A3    A(2,1,5)              106.6365         calculate D2E/DX2 analytically  !
 ! A4    A(3,1,4)              109.1742         calculate D2E/DX2 analytically  !
 ! A5    A(3,1,5)              110.5469         calculate D2E/DX2 analytically  !
 ! A6    A(4,1,5)              111.1357         calculate D2E/DX2 analytically  !
 ! A7    A(1,5,6)              113.5402         calculate D2E/DX2 analytically  !
 ! A8    A(5,6,7)              113.201          calculate D2E/DX2 analytically  !
 ! A9    A(5,6,8)              115.1696         calculate D2E/DX2 analytically  !
 ! A10   A(5,6,13)             103.1283         calculate D2E/DX2 analytically  !
 ! A11   A(7,6,8)              107.2148         calculate D2E/DX2 analytically  !
 ! A12   A(7,6,13)             107.6974         calculate D2E/DX2 analytically  !
 ! A13   A(8,6,13)             110.1766         calculate D2E/DX2 analytically  !
 ! A14   A(6,8,9)              114.1695         calculate D2E/DX2 analytically  !
 ! A15   A(8,9,10)             110.5402         calculate D2E/DX2 analytically  !
 ! A16   A(8,9,11)             111.2844         calculate D2E/DX2 analytically  !
 ! A17   A(8,9,12)             106.2657         calculate D2E/DX2 analytically  !
 ! A18   A(10,9,11)            109.1141         calculate D2E/DX2 analytically  !
 ! A19   A(10,9,12)            109.6809         calculate D2E/DX2 analytically  !
 ! A20   A(11,9,12)            109.9192         calculate D2E/DX2 analytically  !
 ! A21   A(13,14,15)           105.1633         calculate D2E/DX2 analytically  !
 ! A22   A(13,14,16)           104.5799         calculate D2E/DX2 analytically  !
 ! A23   A(13,14,17)           104.0667         calculate D2E/DX2 analytically  !
 ! A24   A(15,14,16)           114.2069         calculate D2E/DX2 analytically  !
 ! A25   A(15,14,17)           113.7892         calculate D2E/DX2 analytically  !
 ! A26   A(16,14,17)           113.6069         calculate D2E/DX2 analytically  !
 ! A27   L(6,13,14,10,-1)      180.618          calculate D2E/DX2 analytically  !
 ! A28   L(6,13,14,10,-2)      182.9424         calculate D2E/DX2 analytically  !
 ! D1    D(2,1,5,6)           -178.6529         calculate D2E/DX2 analytically  !
 ! D2    D(3,1,5,6)            -59.6817         calculate D2E/DX2 analytically  !
 ! D3    D(4,1,5,6)             61.7143         calculate D2E/DX2 analytically  !
 ! D4    D(1,5,6,7)             52.7084         calculate D2E/DX2 analytically  !
 ! D5    D(1,5,6,8)            -71.1534         calculate D2E/DX2 analytically  !
 ! D6    D(1,5,6,13)           168.7854         calculate D2E/DX2 analytically  !
 ! D7    D(5,6,8,9)            -58.0694         calculate D2E/DX2 analytically  !
 ! D8    D(7,6,8,9)            174.9676         calculate D2E/DX2 analytically  !
 ! D9    D(13,6,8,9)            58.0374         calculate D2E/DX2 analytically  !
 ! D10   D(5,6,14,15)          154.2017         calculate D2E/DX2 analytically  !
 ! D11   D(5,6,14,16)           33.4863         calculate D2E/DX2 analytically  !
 ! D12   D(5,6,14,17)          -85.385          calculate D2E/DX2 analytically  !
 ! D13   D(7,6,14,15)          -86.3515         calculate D2E/DX2 analytically  !
 ! D14   D(7,6,14,16)          152.9331         calculate D2E/DX2 analytically  !
 ! D15   D(7,6,14,17)           34.0618         calculate D2E/DX2 analytically  !
 ! D16   D(8,6,14,15)           31.1858         calculate D2E/DX2 analytically  !
 ! D17   D(8,6,14,16)          -89.5297         calculate D2E/DX2 analytically  !
 ! D18   D(8,6,14,17)          151.5991         calculate D2E/DX2 analytically  !
 ! D19   D(6,8,9,10)           -60.443          Scan                            !
 ! D20   D(6,8,9,11)            60.9727         calculate D2E/DX2 analytically  !
 ! D21   D(6,8,9,12)          -179.3875         calculate D2E/DX2 analytically  !
 --------------------------------------------------------------------------------
 Trust Radius=3.00D-01 FncErr=1.00D-07 GrdErr=1.00D-07
 Number of optimizations in scan=  25
 Number of steps in this run=     75 maximum allowed number of steps=    102.
 Search for a saddle point of order  1.
 GradGradGradGradGradGradGradGradGradGradGradGradGradGradGradGradGradGrad

                          Input orientation:                          
 ---------------------------------------------------------------------
 Center     Atomic      Atomic             Coordinates (Angstroms)
 Number     Number       Type             X           Y           Z
 ---------------------------------------------------------------------
      1          6           0       -2.179781   -0.736971   -0.141647
      2          1           0       -2.682579   -1.207719   -0.984555
      3          1           0       -2.417916   -1.282851    0.777959
      4          1           0       -2.515508    0.298600   -0.041646
      5          8           0       -0.778303   -0.800308   -0.413894
      6          6           0        0.006605   -0.260809    0.593966
      7          1           0       -0.214436   -0.676644    1.581959
      8          8           0       -0.047550    1.119521    0.708366
      9          6           0        0.330951    1.819651   -0.477005
     10          1           0        1.361601    1.577789   -0.753131
     11          1           0       -0.329812    1.573473   -1.310866
     12          1           0        0.253373    2.879348   -0.242936
     13          1           0        1.218358   -0.640339    0.263469
     14          6           0        2.472185   -1.081255   -0.140073
     15          1           0        3.174161   -0.365530    0.280267
     16          1           0        2.427467   -1.076489   -1.225576
     17          1           0        2.552362   -2.077035    0.287842
 ---------------------------------------------------------------------
                    Distance matrix (angstroms):
                    1          2          3          4          5
     1  C    0.000000
     2  H    1.088533   0.000000
     3  H    1.095613   1.783857   0.000000
     4  H    1.093215   1.784933   1.783890   0.000000
     5  O    1.429080   2.029262   2.083673   2.089031   0.000000
     6  C    2.355449   3.258846   2.637560   2.660450   1.386694
     7  H    2.614773   3.600106   2.422649   2.980290   2.077659
     8  O    2.952201   3.901975   3.375629   2.706889   2.340771
     9  C    3.598966   4.301621   4.330903   3.256603   2.845806
    10  H    4.274741   4.916096   4.981189   4.144214   3.217082
    11  H    3.182391   3.657461   4.108766   2.830810   2.576924
    12  H    4.359846   5.086642   5.049942   3.790446   3.825369
    13  H    3.423566   4.134827   3.728272   3.862183   2.114490
    14  C    4.664689   5.225011   4.979610   5.175980   3.274077
    15  H    5.383370   6.050658   5.688629   5.737336   4.036442
    16  H    4.745198   5.117410   5.247330   5.265507   3.318443
    17  H    4.936943   5.457042   5.057134   5.606738   3.635353
                    6          7          8          9         10
     6  C    0.000000
     7  H    1.094490   0.000000
     8  O    1.386121   2.004301   0.000000
     9  C    2.362307   3.281504   1.427778   0.000000
    10  H    2.651627   3.608186   2.081271   1.094067   0.000000
    11  H    2.665737   3.666712   2.088790   1.092033   1.781001
    12  H    3.259123   4.024198   2.022998   1.088009   1.783963
    13  H    1.312104   1.947468   2.213044   2.717967   2.444194
    14  C    2.700191   3.216681   3.451424   3.621279   2.946142
    15  H    3.184774   3.643320   3.573243   3.665013   2.851276
    16  H    3.136342   3.875794   3.832532   3.652857   2.899046
    17  H    3.142176   3.360209   4.141781   4.550145   3.982371
                   11         12         13         14         15
    11  H    0.000000
    12  H    1.784906   0.000000
    13  H    3.126711   3.684540   0.000000
    14  C    4.033550   4.540934   1.389005   0.000000
    15  H    4.309207   4.397042   1.975087   1.087069   0.000000
    16  H    3.825201   4.619623   1.967086   1.086434   1.824987
    17  H    4.918232   5.489336   1.960677   1.086792   1.820972
                   16         17
    16  H    0.000000
    17  H    1.818550   0.000000
 Stoichiometry    C4H11O2(2)
 Framework group  C1[X(C4H11O2)]
 Deg. of freedom    45
 Full point group                 C1      NOp   1
 Largest Abelian subgroup         C1      NOp   1
 Largest concise Abelian subgroup C1      NOp   1
                         Standard orientation:                         
 ---------------------------------------------------------------------
 Center     Atomic      Atomic             Coordinates (Angstroms)
 Number     Number       Type             X           Y           Z
 ---------------------------------------------------------------------
      1          6           0       -2.179781   -0.736971   -0.141647
      2          1           0       -2.682579   -1.207719   -0.984555
      3          1           0       -2.417916   -1.282851    0.777959
      4          1           0       -2.515508    0.298600   -0.041646
      5          8           0       -0.778303   -0.800308   -0.413894
      6          6           0        0.006605   -0.260809    0.593966
      7          1           0       -0.214436   -0.676644    1.581959
      8          8           0       -0.047550    1.119521    0.708366
      9          6           0        0.330951    1.819651   -0.477005
     10          1           0        1.361601    1.577789   -0.753131
     11          1           0       -0.329812    1.573473   -1.310866
     12          1           0        0.253373    2.879348   -0.242936
     13          1           0        1.218358   -0.640339    0.263469
     14          6           0        2.472185   -1.081255   -0.140073
     15          1           0        3.174161   -0.365530    0.280267
     16          1           0        2.427467   -1.076489   -1.225576
     17          1           0        2.552362   -2.077035    0.287842
 ---------------------------------------------------------------------
 Rotational constants (GHZ):      3.5884991      2.3691516      1.6746702
 Standard basis: 6-311++G(d,p) (5D, 7F)
 There are   215 symmetry adapted cartesian basis functions of A   symmetry.
 There are   209 symmetry adapted basis functions of A   symmetry.
   209 basis functions,   315 primitive gaussians,   215 cartesian basis functions
    26 alpha electrons       25 beta electrons
       nuclear repulsion energy       264.1044289019 Hartrees.
 NAtoms=   17 NActive=   17 NUniq=   17 SFac= 1.00D+00 NAtFMM=   60 NAOKFM=F Big=F
 Integral buffers will be    131072 words long.
 Regular integral format.
 Two-electron integral symmetry is turned on.
 Nuclear repulsion after empirical dispersion term =      264.0963810851 Hartrees.
 One-electron integrals computed using PRISM.
 NBasis=   209 RedAO= T EigKep=  7.68D-05  NBF=   209
 NBsUse=   209 1.00D-06 EigRej= -1.00D+00 NBFU=   209
 ExpMin= 3.60D-02 ExpMax= 8.59D+03 ExpMxC= 1.30D+03 IAcc=4 IRadAn=    199974 AccDes= 0.00D+00
 Harris functional with IExCor=  419 and IRadAn=  199974 diagonalized for initial guess.
 HarFok:  IExCor=  419 AccDes= 0.00D+00 IRadAn=    199974 IDoV= 1 UseB2=F ITyADJ=14
 ICtDFT=  3500011 ScaDFX=  1.000000  1.000000  1.000000  1.000000
 FoFCou: FMM=F IPFlag=           0 FMFlag=      100000 FMFlg1=           0
         NFxFlg=           0 DoJE=T BraDBF=F KetDBF=T FulRan=T
         wScrn=  0.000000 ICntrl=     500 IOpCl=  0 I1Cent=   200000004 NGrid=           0
         NMat0=    1 NMatS0=      1 NMatT0=    0 NMatD0=    1 NMtDS0=    0 NMtDT0=    0
 Petite list used in FoFCou.
 Initial guess <Sx>= 0.0000 <Sy>= 0.0000 <Sz>= 0.5000 <S**2>= 0.7500 S= 0.5000
 Keep R1 and R2 ints in memory in canonical form, NReq=486792531.
 Requested convergence on RMS density matrix=1.00D-11 within  64 cycles.
 Requested convergence on MAX density matrix=1.00D-09.
 Requested convergence on             energy=1.00D-09.
 No special actions if energy rises.
 SCF Done:  E(UB2PLYPD3) =  -309.161540486     A.U. after   21 cycles
            NFock= 21  Conv=0.89D-11     -V/T= 2.0028
 <Sx>= 0.0000 <Sy>= 0.0000 <Sz>= 0.5000 <S**2>= 0.7665 S= 0.5082
 <L.S>= 0.000000000000E+00
 Annihilation of the first spin contaminant:
 S**2 before annihilation     0.7665,   after     0.7501
 QCSCF skips out because SCF is already converged.
 DoSCS=T DFT=T ScalE2(SS,OS)=  0.270000  0.270000
 ExpMin= 3.60D-02 ExpMax= 8.59D+03 ExpMxC= 1.30D+03 IAcc=4 IRadAn=    199974 AccDes= 0.00D+00
 HarFok:  IExCor=  205 AccDes= 0.00D+00 IRadAn=    199974 IDoV=-2 UseB2=F ITyADJ=14
 ICtDFT= 12500011 ScaDFX=  1.000000  1.000000  1.000000  1.000000
 Range of M.O.s used for correlation:     7   209
 NBasis=   209 NAE=    26 NBE=    25 NFC=     6 NFV=     0
 NROrb=    203 NOA=    20 NOB=    19 NVA=   183 NVB=   184

 **** Warning!!: The largest alpha MO coefficient is  0.38569095D+02


 **** Warning!!: The largest beta MO coefficient is  0.38227261D+02

 DoSCS=T DFT=T ScalE2(SS,OS)=  0.270000  0.270000
 Disk-based method using ON**2 memory for 20 occupieds at a time.
 Permanent disk used for amplitudes=    32349825 words.
 Estimated scratch disk usage=   380564512 words.
 Actual    scratch disk usage=   346006560 words.
 JobTyp=2 Pass  1:  I=   7 to  26 NPSUse= 12 ParTrn=T ParDer=T DoDerP=T.
 (rs|ai) integrals will be sorted in core.
 Actual    scratch disk usage=   346006560 words.
 JobTyp=3 Pass  1:  I=   7 to  25 NPSUse= 12 ParTrn=T ParDer=T DoDerP=T.
 (rs|ai) integrals will be sorted in core.
 Spin components of T(2) and E(2):
     alpha-alpha T2 =       0.5935380260D-01 E2=     -0.4249905949D-01
     alpha-beta  T2 =       0.3507291713D+00 E2=     -0.2540514201D+00
     beta-beta   T2 =       0.5684593061D-01 E2=     -0.3938195914D-01
 E2(B2PLYPD3) =    -0.3359324388D+00 E(B2PLYPD3) =    -0.30916154048608D+03
 G2DrvN: will do    18 centers at a time, making    1 passes.
 Calling FoFCou, ICntrl=  3107 FMM=F I1Cent=   0 AccDes= 0.00D+00.
 End of G2Drv F.D. properties file   721 does not exist.
 End of G2Drv F.D. properties file   722 does not exist.
 End of G2Drv F.D. properties file   788 does not exist.
          IDoAtm=11111111111111111
          Differentiating once with respect to electric field.
                with respect to dipole field.
          Differentiating once with respect to nuclear coordinates.
 Keep R1 and R2 ints in memory in canonical form, NReq=486658066.
          There are    54 degrees of freedom in the 1st order CPHF.  IDoFFX=6 NUNeed=    54.
     51 vectors produced by pass  0 Test12= 1.73D-14 1.85D-09 XBig12= 6.60D+01 2.52D+00.
 AX will form    51 AO Fock derivatives at one time.
     51 vectors produced by pass  1 Test12= 1.73D-14 1.85D-09 XBig12= 2.71D+00 2.27D-01.
     51 vectors produced by pass  2 Test12= 1.73D-14 1.85D-09 XBig12= 8.15D-02 3.76D-02.
     51 vectors produced by pass  3 Test12= 1.73D-14 1.85D-09 XBig12= 1.37D-03 3.70D-03.
     51 vectors produced by pass  4 Test12= 1.73D-14 1.85D-09 XBig12= 1.68D-05 4.15D-04.
     51 vectors produced by pass  5 Test12= 1.73D-14 1.85D-09 XBig12= 1.81D-07 3.52D-05.
     48 vectors produced by pass  6 Test12= 1.73D-14 1.85D-09 XBig12= 1.61D-09 4.23D-06.
     15 vectors produced by pass  7 Test12= 1.73D-14 1.85D-09 XBig12= 8.54D-12 2.53D-07.
      3 vectors produced by pass  8 Test12= 1.73D-14 1.85D-09 XBig12= 5.15D-14 1.70D-08.
 InvSVY:  IOpt=1 It=  1 EMax= 4.44D-15
 Solved reduced A of dimension   372 with    54 vectors.
 End of Minotr F.D. properties file   721 does not exist.
 End of Minotr F.D. properties file   722 does not exist.
 End of Minotr F.D. properties file   788 does not exist.
 MDV=  2097152000.
 DoSCS=T DFT=T ScalE2(SS,OS)=  0.270000  0.270000
 Form MO integral derivatives with frozen-active canonical formalism.
 Discarding MO integrals.
 Reordered first order wavefunction length =    130367853
 In DefCFB: NBatch=  1 ICI= 26 ICA=184 LFMax= 46
            Large arrays: LIAPS=  1682006920 LIARS=   331196320 words.
 In DefCFB: NBatch=  1 ICI= 26 ICA=184 LFMax= 46
            Large arrays: LIAPS=  1682006920 LIARS=   331196320 words.
 Semi-Direct transformation.
 ModeAB=           4 MOrb=            26 LenV=    2095804532
 LASXX=    108885088 LTotXX=   108885088 LenRXX=   221002093
 LTotAB=   112117005 MaxLAS=   123194214 LenRXY=           0
 NonZer=   329887181 LenScr=   496772096 LnRSAI=   123194214
 LnScr1=   185548800 LExtra=           0 Total=   1026517203
 MaxDsk=          -1 SrtSym=           T ITran=            4
 JobTyp=1 Pass  1:  I=   1 to  26.
 (rs|ai) integrals will be sorted in core.
 ModeAB=           4 MOrb=            25 LenV=    2095804532
 LASXX=    105081550 LTotXX=   105081550 LenRXX=   187998850
 LTotAB=    82917300 MaxLAS=   118455975 LenRXY=           0
 NonZer=   293080400 LenScr=   441345024 LnRSAI=   118455975
 LnScr1=   178451456 LExtra=           0 Total=    926251305
 MaxDsk=          -1 SrtSym=           T ITran=            4
 JobTyp=2 Pass  1:  I=   1 to  25.
 (rs|ai) integrals will be sorted in core.
 SymMOI:  orbitals are not symmetric.
 DoSCS=T DFT=T ScalE2(SS,OS)=  0.270000  0.270000
 Spin components of T(2) and E(2):
     alpha-alpha T2 =       0.5935380260D-01 E2=     -0.4249905949D-01
     alpha-beta  T2 =       0.3507291713D+00 E2=     -0.2540514201D+00
     beta-beta   T2 =       0.5684593061D-01 E2=     -0.3938195914D-01
 E2(B2PLYPD3) =    -0.3359324388D+00 E(B2PLYPD3) =    -0.30916154048608D+03
          IDoAtm=11111111111111111
          Differentiating once with respect to electric field.
                with respect to dipole field.
          Differentiating once with respect to nuclear coordinates.
 Keep R1 and R2 ints in memory in canonical form, NReq=486646216.
          There are     1 degrees of freedom in the 1st order CPHF.  IDoFFX=0 NUNeed=     1.
 LinEq1:  Iter=  0 NonCon=     1 RMS=9.40D-04 Max=2.87D-02 NDo=     1
 AX will form     1 AO Fock derivatives at one time.
 LinEq1:  Iter=  1 NonCon=     1 RMS=2.94D-04 Max=3.36D-03 NDo=     1
 LinEq1:  Iter=  2 NonCon=     1 RMS=1.44D-04 Max=4.55D-03 NDo=     1
 LinEq1:  Iter=  3 NonCon=     1 RMS=5.97D-05 Max=6.49D-04 NDo=     1
 LinEq1:  Iter=  4 NonCon=     1 RMS=2.73D-05 Max=3.78D-04 NDo=     1
 LinEq1:  Iter=  5 NonCon=     1 RMS=1.10D-05 Max=9.91D-05 NDo=     1
 LinEq1:  Iter=  6 NonCon=     1 RMS=7.18D-06 Max=7.44D-05 NDo=     1
 LinEq1:  Iter=  7 NonCon=     1 RMS=2.11D-06 Max=2.09D-05 NDo=     1
 LinEq1:  Iter=  8 NonCon=     1 RMS=5.23D-07 Max=6.77D-06 NDo=     1
 LinEq1:  Iter=  9 NonCon=     1 RMS=1.51D-07 Max=1.85D-06 NDo=     1
 LinEq1:  Iter= 10 NonCon=     1 RMS=6.50D-08 Max=9.34D-07 NDo=     1
 LinEq1:  Iter= 11 NonCon=     1 RMS=2.95D-08 Max=3.90D-07 NDo=     1
 LinEq1:  Iter= 12 NonCon=     1 RMS=9.71D-09 Max=1.72D-07 NDo=     1
 LinEq1:  Iter= 13 NonCon=     1 RMS=4.20D-09 Max=4.81D-08 NDo=     1
 LinEq1:  Iter= 14 NonCon=     1 RMS=1.59D-09 Max=2.01D-08 NDo=     1
 LinEq1:  Iter= 15 NonCon=     1 RMS=4.91D-10 Max=5.41D-09 NDo=     1
 LinEq1:  Iter= 16 NonCon=     1 RMS=1.19D-10 Max=1.06D-09 NDo=     1
 LinEq1:  Iter= 17 NonCon=     0 RMS=5.03D-11 Max=5.60D-10 NDo=     1
 Linear equations converged to 1.000D-10 1.000D-09 after    17 iterations.
 End of Minotr F.D. properties file   721 does not exist.
 End of Minotr F.D. properties file   722 does not exist.
 End of Minotr F.D. properties file   788 does not exist.
 Symmetrizing basis deriv contribution to polar:
 IMax=3 JMax=2 DiffMx= 0.00D+00
 G2DrvN: will do    18 centers at a time, making    1 passes.
 Calling FoFCou, ICntrl=  3107 FMM=F I1Cent=   0 AccDes= 0.00D+00.
 End of G2Drv F.D. properties file   721 does not exist.
 End of G2Drv F.D. properties file   722 does not exist.
 End of G2Drv F.D. properties file   788 does not exist.
 DoSCS=T DFT=T ScalE2(SS,OS)=  0.270000  0.270000
 R2 and R3 integrals will be kept in memory, NReq=   544230360.
 DD1Dir will call FoFMem   1 times, MxPair=      1926
 NAB=   650 NAA=   325 NBB=   300.
 Discarding MO integrals.

 **********************************************************************

            Population analysis using the SCF density.

 **********************************************************************

 Orbital symmetries:
 Alpha Orbitals:
       Occupied  (A) (A) (A) (A) (A) (A) (A) (A) (A) (A) (A) (A)
                 (A) (A) (A) (A) (A) (A) (A) (A) (A) (A) (A) (A)
                 (A) (A)
       Virtual   (A) (A) (A) (A) (A) (A) (A) (A) (A) (A) (A) (A)
                 (A) (A) (A) (A) (A) (A) (A) (A) (A) (A) (A) (A)
                 (A) (A) (A) (A) (A) (A) (A) (A) (A) (A) (A) (A)
                 (A) (A) (A) (A) (A) (A) (A) (A) (A) (A) (A) (A)
                 (A) (A) (A) (A) (A) (A) (A) (A) (A) (A) (A) (A)
                 (A) (A) (A) (A) (A) (A) (A) (A) (A) (A) (A) (A)
                 (A) (A) (A) (A) (A) (A) (A) (A) (A) (A) (A) (A)
                 (A) (A) (A) (A) (A) (A) (A) (A) (A) (A) (A) (A)
                 (A) (A) (A) (A) (A) (A) (A) (A) (A) (A) (A) (A)
                 (A) (A) (A) (A) (A) (A) (A) (A) (A) (A) (A) (A)
                 (A) (A) (A) (A) (A) (A) (A) (A) (A) (A) (A) (A)
                 (A) (A) (A) (A) (A) (A) (A) (A) (A) (A) (A) (A)
                 (A) (A) (A) (A) (A) (A) (A) (A) (A) (A) (A) (A)
                 (A) (A) (A) (A) (A) (A) (A) (A) (A) (A) (A) (A)
                 (A) (A) (A) (A) (A) (A) (A) (A) (A) (A) (A) (A)
                 (A) (A) (A)
 Beta  Orbitals:
       Occupied  (A) (A) (A) (A) (A) (A) (A) (A) (A) (A) (A) (A)
                 (A) (A) (A) (A) (A) (A) (A) (A) (A) (A) (A) (A)
                 (A)
       Virtual   (A) (A) (A) (A) (A) (A) (A) (A) (A) (A) (A) (A)
                 (A) (A) (A) (A) (A) (A) (A) (A) (A) (A) (A) (A)
                 (A) (A) (A) (A) (A) (A) (A) (A) (A) (A) (A) (A)
                 (A) (A) (A) (A) (A) (A) (A) (A) (A) (A) (A) (A)
                 (A) (A) (A) (A) (A) (A) (A) (A) (A) (A) (A) (A)
                 (A) (A) (A) (A) (A) (A) (A) (A) (A) (A) (A) (A)
                 (A) (A) (A) (A) (A) (A) (A) (A) (A) (A) (A) (A)
                 (A) (A) (A) (A) (A) (A) (A) (A) (A) (A) (A) (A)
                 (A) (A) (A) (A) (A) (A) (A) (A) (A) (A) (A) (A)
                 (A) (A) (A) (A) (A) (A) (A) (A) (A) (A) (A) (A)
                 (A) (A) (A) (A) (A) (A) (A) (A) (A) (A) (A) (A)
                 (A) (A) (A) (A) (A) (A) (A) (A) (A) (A) (A) (A)
                 (A) (A) (A) (A) (A) (A) (A) (A) (A) (A) (A) (A)
                 (A) (A) (A) (A) (A) (A) (A) (A) (A) (A) (A) (A)
                 (A) (A) (A) (A) (A) (A) (A) (A) (A) (A) (A) (A)
                 (A) (A) (A) (A)
 The electronic state is 2-A.
 Alpha  occ. eigenvalues --  -19.73932 -19.73639 -10.71315 -10.66157 -10.65783
 Alpha  occ. eigenvalues --  -10.60720  -1.22605  -1.15947  -0.84628  -0.80435
 Alpha  occ. eigenvalues --   -0.79493  -0.70311  -0.59032  -0.58522  -0.58336
 Alpha  occ. eigenvalues --   -0.51825  -0.50645  -0.48930  -0.47016  -0.46887
 Alpha  occ. eigenvalues --   -0.45662  -0.43733  -0.39756  -0.36528  -0.35363
 Alpha  occ. eigenvalues --   -0.23769
 Alpha virt. eigenvalues --    0.01477   0.02711   0.03157   0.03997   0.05509
 Alpha virt. eigenvalues --    0.05816   0.06295   0.06692   0.07226   0.08667
 Alpha virt. eigenvalues --    0.09105   0.10128   0.11107   0.12468   0.12703
 Alpha virt. eigenvalues --    0.13708   0.14345   0.14777   0.15293   0.15807
 Alpha virt. eigenvalues --    0.16021   0.16882   0.17793   0.18067   0.18758
 Alpha virt. eigenvalues --    0.19231   0.21597   0.23304   0.23756   0.24053
 Alpha virt. eigenvalues --    0.24695   0.25320   0.25769   0.26438   0.27098
 Alpha virt. eigenvalues --    0.28054   0.30298   0.31487   0.33069   0.33764
 Alpha virt. eigenvalues --    0.34537   0.35236   0.36449   0.37114   0.38412
 Alpha virt. eigenvalues --    0.39208   0.40599   0.42100   0.44056   0.45606
 Alpha virt. eigenvalues --    0.49685   0.51422   0.51904   0.53406   0.54572
 Alpha virt. eigenvalues --    0.57671   0.61503   0.64597   0.66926   0.68346
 Alpha virt. eigenvalues --    0.69132   0.72689   0.73126   0.73278   0.74494
 Alpha virt. eigenvalues --    0.74752   0.75526   0.77709   0.78835   0.79252
 Alpha virt. eigenvalues --    0.80350   0.80487   0.85236   0.98285   1.02210
 Alpha virt. eigenvalues --    1.04051   1.06581   1.09837   1.13247   1.15215
 Alpha virt. eigenvalues --    1.16331   1.17712   1.21242   1.23719   1.28426
 Alpha virt. eigenvalues --    1.35276   1.38591   1.41897   1.43895   1.45240
 Alpha virt. eigenvalues --    1.51394   1.54200   1.54423   1.55747   1.56949
 Alpha virt. eigenvalues --    1.60082   1.61012   1.65457   1.66269   1.67878
 Alpha virt. eigenvalues --    1.68210   1.71173   1.72857   1.73475   1.76239
 Alpha virt. eigenvalues --    1.79897   1.81885   1.81976   1.83947   1.86225
 Alpha virt. eigenvalues --    1.87987   1.89393   1.93727   1.96334   2.01047
 Alpha virt. eigenvalues --    2.06184   2.06849   2.09160   2.12061   2.15161
 Alpha virt. eigenvalues --    2.20846   2.24095   2.28313   2.28573   2.33052
 Alpha virt. eigenvalues --    2.36892   2.41798   2.50873   2.57129   2.58418
 Alpha virt. eigenvalues --    2.58970   2.63726   2.64695   2.65434   2.65541
 Alpha virt. eigenvalues --    2.65996   2.67108   2.67235   2.69331   2.71952
 Alpha virt. eigenvalues --    2.74075   2.74673   2.76765   2.81224   2.90216
 Alpha virt. eigenvalues --    2.97381   3.00039   3.03265   3.04623   3.10341
 Alpha virt. eigenvalues --    3.16748   3.17244   3.20205   3.22665   3.27262
 Alpha virt. eigenvalues --    3.31103   3.38378   3.45039   3.57327   3.59515
 Alpha virt. eigenvalues --    3.92575   3.93391   3.93790   3.95249   3.96920
 Alpha virt. eigenvalues --    3.98441   4.10518   4.21425   4.22807   4.26486
 Alpha virt. eigenvalues --    4.36016   5.31025   5.31905   5.54959   5.62858
 Alpha virt. eigenvalues --    5.83054   6.01777  24.23288  24.38443  24.39902
 Alpha virt. eigenvalues --   24.42357  50.58517  50.61621
  Beta  occ. eigenvalues --  -19.73719 -19.73616 -10.70043 -10.66085 -10.65777
  Beta  occ. eigenvalues --  -10.59364  -1.21975  -1.15617  -0.83408  -0.79856
  Beta  occ. eigenvalues --   -0.76361  -0.68883  -0.58589  -0.58124  -0.56059
  Beta  occ. eigenvalues --   -0.51317  -0.50560  -0.48116  -0.46162  -0.46041
  Beta  occ. eigenvalues --   -0.43891  -0.43292  -0.37516  -0.35401  -0.35019
  Beta virt. eigenvalues --   -0.00147   0.01513   0.03038   0.03383   0.04077
  Beta virt. eigenvalues --    0.05623   0.05849   0.06424   0.06781   0.07249
  Beta virt. eigenvalues --    0.08692   0.09237   0.10216   0.11165   0.12492
  Beta virt. eigenvalues --    0.12744   0.13791   0.14426   0.14834   0.15357
  Beta virt. eigenvalues --    0.15946   0.16259   0.16941   0.17850   0.18270
  Beta virt. eigenvalues --    0.18886   0.19386   0.21812   0.23393   0.23992
  Beta virt. eigenvalues --    0.24439   0.24866   0.25658   0.25939   0.26755
  Beta virt. eigenvalues --    0.27338   0.28256   0.30590   0.32096   0.33186
  Beta virt. eigenvalues --    0.34136   0.34668   0.35908   0.37122   0.37537
  Beta virt. eigenvalues --    0.38478   0.39889   0.41205   0.43097   0.45147
  Beta virt. eigenvalues --    0.45860   0.50027   0.51593   0.51963   0.53558
  Beta virt. eigenvalues --    0.54911   0.58093   0.61917   0.65640   0.67805
  Beta virt. eigenvalues --    0.68821   0.69348   0.72835   0.73345   0.73401
  Beta virt. eigenvalues --    0.75320   0.75512   0.76343   0.78715   0.79263
  Beta virt. eigenvalues --    0.79709   0.80474   0.81803   0.86271   0.98950
  Beta virt. eigenvalues --    1.02800   1.04796   1.07557   1.10521   1.14034
  Beta virt. eigenvalues --    1.15904   1.17207   1.18508   1.22147   1.24853
  Beta virt. eigenvalues --    1.29120   1.35530   1.38962   1.42109   1.44070
  Beta virt. eigenvalues --    1.45648   1.51839   1.54104   1.55011   1.55939
  Beta virt. eigenvalues --    1.58356   1.60530   1.61381   1.65620   1.66375
  Beta virt. eigenvalues --    1.68076   1.68378   1.71788   1.73248   1.73883
  Beta virt. eigenvalues --    1.76455   1.80199   1.82122   1.82326   1.84185
  Beta virt. eigenvalues --    1.86840   1.88373   1.89632   1.94638   1.97369
  Beta virt. eigenvalues --    2.01975   2.07170   2.07784   2.09779   2.12309
  Beta virt. eigenvalues --    2.15342   2.21304   2.24177   2.28531   2.28735
  Beta virt. eigenvalues --    2.33257   2.38111   2.42735   2.52843   2.57221
  Beta virt. eigenvalues --    2.58714   2.58998   2.63833   2.64793   2.65555
  Beta virt. eigenvalues --    2.65767   2.66044   2.67353   2.67868   2.70329
  Beta virt. eigenvalues --    2.72383   2.74536   2.74771   2.77040   2.81252
  Beta virt. eigenvalues --    2.90279   2.97506   2.99713   3.03558   3.04822
  Beta virt. eigenvalues --    3.10882   3.16889   3.17739   3.20409   3.22724
  Beta virt. eigenvalues --    3.27675   3.31374   3.39080   3.45415   3.59256
  Beta virt. eigenvalues --    3.60336   3.93350   3.93952   3.94495   3.95591
  Beta virt. eigenvalues --    3.97073   3.98502   4.11297   4.21780   4.23009
  Beta virt. eigenvalues --    4.27465   4.36405   5.31177   5.32349   5.55231
  Beta virt. eigenvalues --    5.63021   5.83192   6.02052  24.24407  24.38507
  Beta virt. eigenvalues --   24.39996  24.43459  50.58631  50.61697
          Condensed to atoms (all electrons):
               1          2          3          4          5          6
     1  C    5.074537   0.406381   0.398128   0.414906   0.127023  -0.208932
     2  H    0.406381   0.542770  -0.023724  -0.031229  -0.057761   0.020616
     3  H    0.398128  -0.023724   0.597245  -0.061097  -0.038435  -0.005754
     4  H    0.414906  -0.031229  -0.061097   0.580678  -0.047721  -0.007865
     5  O    0.127023  -0.057761  -0.038435  -0.047721   8.101957   0.238042
     6  C   -0.208932   0.020616  -0.005754  -0.007865   0.238042   6.146766
     7  H    0.009087   0.003374   0.004659  -0.000919  -0.017312   0.400484
     8  O   -0.016006  -0.001902  -0.006274   0.016071  -0.068068   0.190608
     9  C    0.045838  -0.001914   0.000121   0.001956  -0.023359  -0.255096
    10  H   -0.002339   0.000069  -0.000159   0.001530  -0.003678   0.029010
    11  H   -0.004028   0.000093   0.001819  -0.008038   0.012450  -0.010578
    12  H    0.001371  -0.000217  -0.000115   0.001061  -0.000327   0.021191
    13  H   -0.011908  -0.006135   0.001582  -0.000832  -0.081624  -0.023559
    14  C   -0.004621   0.002292   0.001638  -0.001699   0.017026  -0.258335
    15  H    0.001320  -0.000042   0.000096  -0.000028   0.000517   0.006489
    16  H    0.001818   0.000041  -0.000237   0.000414   0.001022   0.011755
    17  H   -0.000002  -0.000137  -0.000003  -0.000007  -0.000780   0.018658
               7          8          9         10         11         12
     1  C    0.009087  -0.016006   0.045838  -0.002339  -0.004028   0.001371
     2  H    0.003374  -0.001902  -0.001914   0.000069   0.000093  -0.000217
     3  H    0.004659  -0.006274   0.000121  -0.000159   0.001819  -0.000115
     4  H   -0.000919   0.016071   0.001956   0.001530  -0.008038   0.001061
     5  O   -0.017312  -0.068068  -0.023359  -0.003678   0.012450  -0.000327
     6  C    0.400484   0.190608  -0.255096   0.029010  -0.010578   0.021191
     7  H    0.647998  -0.117058   0.011827  -0.002593   0.000383  -0.001720
     8  O   -0.117058   8.115207   0.165877  -0.043983  -0.039037  -0.064955
     9  C    0.011827   0.165877   5.081077   0.375944   0.417035   0.411920
    10  H   -0.002593  -0.043983   0.375944   0.624722  -0.068805  -0.026243
    11  H    0.000383  -0.039037   0.417035  -0.068805   0.586412  -0.027172
    12  H   -0.001720  -0.064955   0.411920  -0.026243  -0.027172   0.533299
    13  H   -0.116766   0.030760  -0.006782   0.010068  -0.002356  -0.005973
    14  C    0.017086   0.011571   0.021684  -0.023938   0.005720   0.000662
    15  H    0.002138   0.000909  -0.000625   0.000239   0.000478  -0.000344
    16  H    0.002483  -0.003025   0.005465  -0.002204  -0.001824   0.000564
    17  H    0.000410   0.001081   0.000452  -0.001520   0.000609   0.000350
              13         14         15         16         17
     1  C   -0.011908  -0.004621   0.001320   0.001818  -0.000002
     2  H   -0.006135   0.002292  -0.000042   0.000041  -0.000137
     3  H    0.001582   0.001638   0.000096  -0.000237  -0.000003
     4  H   -0.000832  -0.001699  -0.000028   0.000414  -0.000007
     5  O   -0.081624   0.017026   0.000517   0.001022  -0.000780
     6  C   -0.023559  -0.258335   0.006489   0.011755   0.018658
     7  H   -0.116766   0.017086   0.002138   0.002483   0.000410
     8  O    0.030760   0.011571   0.000909  -0.003025   0.001081
     9  C   -0.006782   0.021684  -0.000625   0.005465   0.000452
    10  H    0.010068  -0.023938   0.000239  -0.002204  -0.001520
    11  H   -0.002356   0.005720   0.000478  -0.001824   0.000609
    12  H   -0.005973   0.000662  -0.000344   0.000564   0.000350
    13  H    0.970722   0.144564  -0.043383  -0.050682  -0.039657
    14  C    0.144564   5.412777   0.400134   0.402865   0.385079
    15  H   -0.043383   0.400134   0.554874  -0.034454  -0.027755
    16  H   -0.050682   0.402865  -0.034454   0.540975  -0.025243
    17  H   -0.039657   0.385079  -0.027755  -0.025243   0.551942
          Atomic-Atomic Spin Densities.
               1          2          3          4          5          6
     1  C    0.058330  -0.006051  -0.002762   0.000659  -0.025085   0.012322
     2  H   -0.006051   0.004391   0.000845  -0.000558   0.002943  -0.002153
     3  H   -0.002762   0.000845  -0.001008   0.000194   0.001540  -0.000975
     4  H    0.000659  -0.000558   0.000194  -0.001434  -0.000365   0.001391
     5  O   -0.025085   0.002943   0.001540  -0.000365   0.057120  -0.127723
     6  C    0.012322  -0.002153  -0.000975   0.001391  -0.127723   1.032288
     7  H   -0.008613   0.000185   0.000702  -0.000489   0.007002  -0.041385
     8  O    0.009085  -0.000905  -0.000602   0.000276   0.003001  -0.111287
     9  C   -0.002840   0.000474   0.000268  -0.000679   0.003766  -0.021898
    10  H    0.001735  -0.000265  -0.000091   0.000182  -0.002804   0.025484
    11  H   -0.000823   0.000133  -0.000044   0.000035   0.000504  -0.002973
    12  H    0.000271  -0.000032  -0.000033   0.000032  -0.000280   0.001185
    13  H   -0.009842   0.003291   0.001533  -0.000677   0.049020  -0.033148
    14  C   -0.010812   0.001166   0.001395  -0.001052   0.033043  -0.299390
    15  H    0.000239  -0.000077  -0.000080   0.000059  -0.001756   0.011335
    16  H    0.000825  -0.000246  -0.000090   0.000091  -0.003186   0.010978
    17  H    0.000501  -0.000131  -0.000122   0.000067  -0.002472   0.010946
               7          8          9         10         11         12
     1  C   -0.008613   0.009085  -0.002840   0.001735  -0.000823   0.000271
     2  H    0.000185  -0.000905   0.000474  -0.000265   0.000133  -0.000032
     3  H    0.000702  -0.000602   0.000268  -0.000091  -0.000044  -0.000033
     4  H   -0.000489   0.000276  -0.000679   0.000182   0.000035   0.000032
     5  O    0.007002   0.003001   0.003766  -0.002804   0.000504  -0.000280
     6  C   -0.041385  -0.111287  -0.021898   0.025484  -0.002973   0.001185
     7  H   -0.007701   0.000719   0.000815  -0.000668   0.000060  -0.000057
     8  O    0.000719   0.118168  -0.002768  -0.003420  -0.000531  -0.000022
     9  C    0.000815  -0.002768   0.008306  -0.005572   0.001883   0.000703
    10  H   -0.000668  -0.003420  -0.005572   0.008640  -0.001190   0.000153
    11  H    0.000060  -0.000531   0.001883  -0.001190   0.001708  -0.000048
    12  H   -0.000057  -0.000022   0.000703   0.000153  -0.000048  -0.001277
    13  H    0.034695   0.010634   0.010583  -0.011405   0.001785  -0.001124
    14  C    0.004927   0.022752   0.008485  -0.011913   0.000380  -0.000412
    15  H   -0.000819  -0.001880  -0.000654   0.001715  -0.000080   0.000104
    16  H   -0.001103  -0.001177  -0.000278   0.001556  -0.000153   0.000115
    17  H   -0.000920  -0.000965  -0.000306   0.000479  -0.000033   0.000063
              13         14         15         16         17
     1  C   -0.009842  -0.010812   0.000239   0.000825   0.000501
     2  H    0.003291   0.001166  -0.000077  -0.000246  -0.000131
     3  H    0.001533   0.001395  -0.000080  -0.000090  -0.000122
     4  H   -0.000677  -0.001052   0.000059   0.000091   0.000067
     5  O    0.049020   0.033043  -0.001756  -0.003186  -0.002472
     6  C   -0.033148  -0.299390   0.011335   0.010978   0.010946
     7  H    0.034695   0.004927  -0.000819  -0.001103  -0.000920
     8  O    0.010634   0.022752  -0.001880  -0.001177  -0.000965
     9  C    0.010583   0.008485  -0.000654  -0.000278  -0.000306
    10  H   -0.011405  -0.011913   0.001715   0.001556   0.000479
    11  H    0.001785   0.000380  -0.000080  -0.000153  -0.000033
    12  H   -0.001124  -0.000412   0.000104   0.000115   0.000063
    13  H   -0.341904   0.124928   0.013689   0.014387   0.014288
    14  C    0.124928   0.897927  -0.028241  -0.028962  -0.027336
    15  H    0.013689  -0.028241  -0.022410   0.001995   0.001445
    16  H    0.014387  -0.028962   0.001995  -0.021903   0.001481
    17  H    0.014288  -0.027336   0.001445   0.001481  -0.022630
 Mulliken charges and spin densities:
               1          2
     1  C   -0.232573   0.017140
     2  H    0.147427   0.003008
     3  H    0.130508   0.000671
     4  H    0.142820  -0.002267
     5  O   -0.158972  -0.005732
     6  C   -0.313500   0.464999
     7  H    0.156439  -0.012650
     8  O   -0.171775   0.041079
     9  C   -0.251421   0.000288
    10  H    0.133881   0.002617
    11  H    0.136841   0.000615
    12  H    0.156648  -0.000658
    13  H    0.231960  -0.119268
    14  C   -0.534508   0.686886
    15  H    0.139437  -0.025416
    16  H    0.150266  -0.025670
    17  H    0.136522  -0.025644
 Sum of Mulliken charges =   0.00000   1.00000
 Mulliken charges and spin densities with hydrogens summed into heavy atoms:
               1          2
     1  C    0.188182   0.018552
     5  O   -0.158972  -0.005732
     6  C    0.074899   0.333082
     8  O   -0.171775   0.041079
     9  C    0.175950   0.002862
    14  C   -0.108283   0.610156
 APT charges:
               1
     1  C    0.500504
     2  H   -0.019371
     3  H   -0.045432
     4  H   -0.036800
     5  O   -0.872164
     6  C    1.187420
     7  H   -0.099682
     8  O   -0.914171
     9  C    0.468095
    10  H   -0.028029
    11  H   -0.024669
    12  H   -0.004909
    13  H   -0.159126
    14  C    0.102604
    15  H   -0.020801
    16  H   -0.014881
    17  H   -0.018588
 Sum of APT charges =   0.00000
 APT charges with hydrogens summed into heavy atoms:
               1
     1  C    0.398900
     5  O   -0.872164
     6  C    0.928612
     8  O   -0.914171
     9  C    0.410488
    14  C    0.048335
 Electronic spatial extent (au):  <R**2>=            807.9610
 Charge=              0.0000 electrons
 Dipole moment (field-independent basis, Debye):
    X=             -0.7731    Y=              0.2398    Z=             -0.2577  Tot=              0.8494
 Quadrupole moment (field-independent basis, Debye-Ang):
   XX=            -36.7700   YY=            -39.1796   ZZ=            -40.5656
   XY=              1.8827   XZ=              0.0814   YZ=             -3.9688
 Traceless Quadrupole moment (field-independent basis, Debye-Ang):
   XX=              2.0684   YY=             -0.3411   ZZ=             -1.7272
   XY=              1.8827   XZ=              0.0814   YZ=             -3.9688
 Octapole moment (field-independent basis, Debye-Ang**2):
  XXX=            -19.8925  YYY=              8.8518  ZZZ=              0.0014  XYY=             -1.8995
  XXY=              0.1168  XXZ=             -0.2578  XZZ=             -2.6938  YZZ=             -2.2668
  YYZ=             -1.3902  XYZ=             -0.3209
 Hexadecapole moment (field-independent basis, Debye-Ang**3):
 XXXX=           -625.2801 YYYY=           -342.9079 ZZZZ=           -116.6415 XXXY=             27.5252
 XXXZ=             12.9506 YYYX=              6.4041 YYYZ=             -3.5418 ZZZX=              0.8204
 ZZZY=             -0.1366 XXYY=           -163.1536 XXZZ=           -120.7835 YYZZ=            -82.6272
 XXYZ=              0.7425 YYXZ=              2.9047 ZZXY=              3.9809
 N-N= 2.640963810851D+02 E-N=-1.251255359087D+03  KE= 3.079728882214D+02
  Exact polarizability:  87.959  -7.071  66.991  -3.474  -0.516  57.005
 Approx polarizability:  75.712  -4.121  65.264  -3.128   0.846  63.323
                          Isotropic Fermi Contact Couplings
        Atom                 a.u.       MegaHertz       Gauss      10(-4) cm-1
     1  C(13)              0.02338      26.28023       9.37744       8.76614
     2  H(1)               0.00074       3.32646       1.18696       1.10959
     3  H(1)              -0.00026      -1.16747      -0.41658      -0.38943
     4  H(1)              -0.00042      -1.89080      -0.67469      -0.63070
     5  O(17)              0.06200     -37.58134     -13.40995     -12.53578
     6  C(13)              0.26246     295.05648     105.28348      98.42025
     7  H(1)              -0.00017      -0.77546      -0.27670      -0.25867
     8  O(17)              0.00841      -5.10104      -1.82018      -1.70153
     9  C(13)              0.00236       2.65012       0.94563       0.88399
    10  H(1)               0.00154       6.89981       2.46202       2.30153
    11  H(1)               0.00057       2.56975       0.91695       0.85718
    12  H(1)              -0.00021      -0.94902      -0.33863      -0.31656
    13  H(1)              -0.03171    -141.74361     -50.57764     -47.28058
    14  C(13)              0.20158     226.61775      80.86285      75.59155
    15  H(1)              -0.00655     -29.29510     -10.45322      -9.77179
    16  H(1)              -0.00681     -30.44748     -10.86442     -10.15619
    17  H(1)              -0.00655     -29.27920     -10.44755      -9.76649
 --------------------------------------------------------
       Center         ----  Spin Dipole Couplings  ----
                      3XX-RR        3YY-RR        3ZZ-RR
 --------------------------------------------------------
     1   Atom        0.035926     -0.017415     -0.018511
     2   Atom        0.003044     -0.002488     -0.000556
     3   Atom        0.005252     -0.003271     -0.001982
     4   Atom        0.005727     -0.001319     -0.004408
     5   Atom        0.056606     -0.024915     -0.031691
     6   Atom        0.466416     -0.251232     -0.215184
     7   Atom       -0.006627     -0.020421      0.027047
     8   Atom        0.244455     -0.082348     -0.162106
     9   Atom       -0.006217      0.004621      0.001596
    10   Atom       -0.002873      0.006155     -0.003282
    11   Atom       -0.002781      0.000738      0.002043
    12   Atom       -0.002785      0.005516     -0.002731
    13   Atom        0.177510     -0.085083     -0.092426
    14   Atom        0.496364     -0.235783     -0.260580
    15   Atom        0.025916      0.000748     -0.026664
    16   Atom       -0.008520     -0.039790      0.048310
    17   Atom       -0.008772      0.035005     -0.026233
 --------------------------------------------------------
                        XY            XZ            YZ
 --------------------------------------------------------
     1   Atom       -0.003555      0.002663     -0.000159
     2   Atom        0.001537      0.003018      0.001970
     3   Atom        0.003914     -0.002690     -0.001460
     4   Atom       -0.002713      0.001779      0.000294
     5   Atom       -0.013929      0.003905     -0.007346
     6   Atom       -0.214959     -0.264713      0.066850
     7   Atom       -0.001914     -0.019359     -0.022665
     8   Atom       -0.206863     -0.060176      0.021469
     9   Atom        0.000158     -0.004565     -0.008963
    10   Atom        0.000609     -0.002437     -0.006206
    11   Atom       -0.002871      0.002274     -0.005000
    12   Atom       -0.000477     -0.000395     -0.002583
    13   Atom       -0.098129     -0.085664      0.027957
    14   Atom       -0.307233     -0.270707      0.098698
    15   Atom        0.024650      0.010837      0.028031
    16   Atom       -0.012766     -0.005960      0.003109
    17   Atom       -0.016899     -0.009376     -0.028898
 --------------------------------------------------------


 ---------------------------------------------------------------------------------
              Anisotropic Spin Dipole Couplings in Principal Axis System
 ---------------------------------------------------------------------------------

       Atom             a.u.   MegaHertz   Gauss  10(-4) cm-1        Axes

              Baa    -0.0186    -2.501    -0.893    -0.834 -0.0497 -0.0144  0.9987
     1 C(13)  Bbb    -0.0177    -2.369    -0.845    -0.790  0.0653  0.9977  0.0177
              Bcc     0.0363     4.870     1.738     1.624  0.9966 -0.0661  0.0486
 
              Baa    -0.0037    -1.993    -0.711    -0.665  0.0694  0.8173 -0.5720
     2 H(1)   Bbb    -0.0017    -0.909    -0.324    -0.303 -0.5738  0.5017  0.6473
              Bcc     0.0054     2.903     1.036     0.968  0.8160  0.2833  0.5038
 
              Baa    -0.0049    -2.596    -0.926    -0.866 -0.3127  0.9325  0.1805
     3 H(1)   Bbb    -0.0029    -1.527    -0.545    -0.509  0.3427 -0.0664  0.9371
              Bcc     0.0077     4.123     1.471     1.375  0.8859  0.3549 -0.2988
 
              Baa    -0.0049    -2.614    -0.933    -0.872 -0.2206 -0.2448  0.9442
     4 H(1)   Bbb    -0.0020    -1.054    -0.376    -0.352  0.2551  0.9198  0.2981
              Bcc     0.0069     3.669     1.309     1.224  0.9414 -0.3066  0.1405
 
              Baa    -0.0366     2.649     0.945     0.884  0.0516  0.5745  0.8169
     5 O(17)  Bbb    -0.0226     1.635     0.583     0.545  0.1692  0.8011 -0.5741
              Bcc     0.0592    -4.284    -1.529    -1.429  0.9842 -0.1679  0.0558
 
              Baa    -0.3143   -42.177   -15.050   -14.069  0.3834  0.7764  0.5002
     6 C(13)  Bbb    -0.3013   -40.426   -14.425   -13.485  0.1167 -0.5779  0.8077
              Bcc     0.6156    82.603    29.475    27.553  0.9162 -0.2513 -0.3122
 
              Baa    -0.0331   -17.679    -6.308    -5.897  0.3732  0.8222  0.4297
     7 H(1)   Bbb    -0.0092    -4.919    -1.755    -1.641  0.8636 -0.4771  0.1628
              Bcc     0.0424    22.598     8.063     7.538 -0.3389 -0.3103  0.8882
 
              Baa    -0.1856    13.428     4.791     4.479  0.4422  0.8032  0.3991
     8 O(17)  Bbb    -0.1669    12.079     4.310     4.029 -0.0737 -0.4110  0.9087
              Bcc     0.3525   -25.507    -9.102    -8.508  0.8939 -0.4313 -0.1225
 
              Baa    -0.0097    -1.304    -0.465    -0.435  0.7369  0.3525  0.5768
     9 C(13)  Bbb    -0.0030    -0.402    -0.144    -0.134  0.6555 -0.5811 -0.4824
              Bcc     0.0127     1.706     0.609     0.569  0.1651  0.7335 -0.6593
 
              Baa    -0.0072    -3.858    -1.377    -1.287  0.4144  0.3672  0.8328
    10 H(1)   Bbb    -0.0022    -1.185    -0.423    -0.395  0.9003 -0.2995 -0.3159
              Bcc     0.0095     5.043     1.799     1.682  0.1334  0.8806 -0.4547
 
              Baa    -0.0045    -2.394    -0.854    -0.799  0.7606  0.6155  0.2064
    11 H(1)   Bbb    -0.0032    -1.703    -0.608    -0.568 -0.5610  0.4632  0.6861
              Bcc     0.0077     4.097     1.462     1.367  0.3267 -0.6377  0.6976
 
              Baa    -0.0037    -2.000    -0.714    -0.667  0.4736  0.2591  0.8418
    12 H(1)   Bbb    -0.0025    -1.346    -0.480    -0.449  0.8799 -0.0972 -0.4651
              Bcc     0.0063     3.346     1.194     1.116 -0.0387  0.9609 -0.2740
 
              Baa    -0.1180   -62.957   -22.464   -21.000  0.4005  0.7628  0.5077
    13 H(1)   Bbb    -0.1169   -62.392   -22.263   -20.812  0.0482 -0.5708  0.8197
              Bcc     0.2349   125.348    44.727    41.812  0.9150 -0.3038 -0.2654
 
              Baa    -0.3477   -46.658   -16.649   -15.564  0.1655  0.8677 -0.4687
    14 C(13)  Bbb    -0.3474   -46.615   -16.633   -15.549  0.4040  0.3739  0.8349
              Bcc     0.6951    93.273    33.282    31.113  0.8997 -0.3275 -0.2887
 
              Baa    -0.0444   -23.696    -8.455    -7.904  0.0652 -0.5517  0.8315
    15 H(1)   Bbb    -0.0047    -2.498    -0.891    -0.833  0.6509 -0.6081 -0.4546
              Bcc     0.0491    26.195     9.347     8.738  0.7564  0.5708  0.3194
 
              Baa    -0.0443   -23.663    -8.443    -7.893  0.3341  0.9425 -0.0101
    16 H(1)   Bbb    -0.0048    -2.564    -0.915    -0.855  0.9356 -0.3304  0.1243
              Bcc     0.0492    26.226     9.358     8.748 -0.1138  0.0510  0.9922
 
              Baa    -0.0443   -23.644    -8.437    -7.887  0.4031  0.3879  0.8289
    17 H(1)   Bbb    -0.0049    -2.604    -0.929    -0.869  0.8894  0.0474 -0.4547
              Bcc     0.0492    26.248     9.366     8.755 -0.2157  0.9205 -0.3259
 

 ---------------------------------------------------------------------------------

 Calling FoFJK, ICntrl=  10100127 FMM=F ISym2X=0 I1Cent= 0 IOpClX= 1 NMat=1 NMatS=1 NMatT=0.
 ***** Axes restored to original set *****
 -------------------------------------------------------------------
 Center     Atomic                   Forces (Hartrees/Bohr)
 Number     Number              X              Y              Z
 -------------------------------------------------------------------
      1        6          -0.000000285   -0.000000376    0.000000608
      2        1          -0.000000032   -0.000000014   -0.000000122
      3        1           0.000000071    0.000000272   -0.000000464
      4        1          -0.000000017    0.000000149    0.000000004
      5        8           0.000000125   -0.000000026   -0.000000306
      6        6           0.000000111   -0.000000244    0.000000675
      7        1           0.000000090    0.000000136   -0.000000401
      8        8           0.000000031    0.000000003   -0.000000069
      9        6          -0.000000277    0.000000012   -0.000000115
     10        1           0.000000068   -0.000000007    0.000000053
     11        1           0.000000096   -0.000000045    0.000000066
     12        1           0.000000108    0.000000175    0.000000127
     13        1          -0.000000066   -0.000000011   -0.000000008
     14        6          -0.000000253   -0.000000558   -0.000000336
     15        1           0.000000241    0.000000179    0.000000181
     16        1          -0.000000004    0.000000049    0.000000181
     17        1          -0.000000008    0.000000305   -0.000000072
 -------------------------------------------------------------------
 Cartesian Forces:  Max     0.000000675 RMS     0.000000229
 FormGI is forming the generalized inverse of G from B-inverse, IUseBI=4.

 GradGradGradGradGradGradGradGradGradGradGradGradGradGradGradGradGradGrad
 Berny optimization.
 Internal  Forces:  Max     0.000000521 RMS     0.000000125
 Search for a saddle point.
 Step number   1 out of a maximum of   75 on scan point     1 out of    25
 All quantities printed in internal units (Hartrees-Bohrs-Radians)
 Swapping is turned off.
 Second derivative matrix not updated -- analytic derivatives used.
 ITU=  0
     Eigenvalues ---   -0.06157   0.00016   0.00341   0.00614   0.01053
     Eigenvalues ---    0.01603   0.02496   0.03900   0.04146   0.05031
     Eigenvalues ---    0.05239   0.05731   0.07528   0.07676   0.08214
     Eigenvalues ---    0.08718   0.08758   0.08839   0.09722   0.11296
     Eigenvalues ---    0.12975   0.13081   0.14634   0.16971   0.17986
     Eigenvalues ---    0.18227   0.18732   0.18803   0.21823   0.23672
     Eigenvalues ---    0.30930   0.32831   0.33177   0.33511   0.33848
     Eigenvalues ---    0.34571   0.34819   0.35345   0.35520   0.35599
     Eigenvalues ---    0.35831   0.37134   0.39099   0.439061000.00000
     Eigenvalues --- 1000.000001000.000001000.000001000.000001000.00000
     Eigenvalues --- 1000.000001000.000001000.000001000.000001000.00000
     Eigenvalues --- 1000.000001000.000001000.000001000.000001000.00000
     Eigenvalues --- 1000.000001000.000001000.000001000.000001000.00000
 Eigenvectors required to have negative eigenvalues:
                          R13       R8        A22       A23       A21
   1                    0.72142  -0.64112  -0.09592  -0.09559  -0.08794
                          A25       A24       D7        A26       D5
   1                    0.07595   0.07458  -0.07387   0.07313   0.05994
 RFO step:  Lambda0=3.298056273D-14 Lambda= 0.00000000D+00.
 Linear search not attempted -- option 19 set.
 Iteration  1 RMS(Cart)=  0.00000055 RMS(Int)=  0.00000000
 Iteration  1 RMS(Cart)=  0.00000000 RMS(Int)=  0.00000000
 Variable       Old X    -DE/DX   Delta X   Delta X   Delta X     New X
                                 (Linear)    (Quad)   (Total)
    R1        2.05703   0.00000   0.00000   0.00000   0.00000   2.05703
    R2        2.07041   0.00000   0.00000   0.00000   0.00000   2.07041
    R3        2.06588   0.00000   0.00000   0.00000   0.00000   2.06588
    R4        2.70057   0.00000   0.00000   0.00000   0.00000   2.70057
    R5        2.62047   0.00000   0.00000   0.00000   0.00000   2.62047
    R6        2.06829   0.00000   0.00000   0.00000   0.00000   2.06828
    R7        2.61939   0.00000   0.00000   0.00000   0.00000   2.61939
    R8        2.47952   0.00000   0.00000   0.00000   0.00000   2.47952
    R9        2.69811   0.00000   0.00000   0.00000   0.00000   2.69811
   R10        2.06749   0.00000   0.00000   0.00000   0.00000   2.06749
   R11        2.06364   0.00000   0.00000   0.00000   0.00000   2.06364
   R12        2.05604   0.00000   0.00000   0.00000   0.00000   2.05604
   R13        2.62484   0.00000   0.00000   0.00000   0.00000   2.62484
   R14        2.05426   0.00000   0.00000   0.00000   0.00000   2.05426
   R15        2.05306   0.00000   0.00000   0.00000   0.00000   2.05306
   R16        2.05374   0.00000   0.00000   0.00000   0.00000   2.05374
    A1        1.91143   0.00000   0.00000   0.00000   0.00000   1.91143
    A2        1.91627   0.00000   0.00000   0.00000   0.00000   1.91627
    A3        1.86116   0.00000   0.00000   0.00000   0.00000   1.86116
    A4        1.90545   0.00000   0.00000   0.00000   0.00000   1.90545
    A5        1.92941   0.00000   0.00000   0.00000   0.00000   1.92941
    A6        1.93968   0.00000   0.00000   0.00000   0.00000   1.93968
    A7        1.98165   0.00000   0.00000   0.00000   0.00000   1.98165
    A8        1.97573   0.00000   0.00000   0.00000   0.00000   1.97573
    A9        2.01009   0.00000   0.00000   0.00000   0.00000   2.01009
   A10        1.79993   0.00000   0.00000   0.00000   0.00000   1.79993
   A11        1.87125   0.00000   0.00000   0.00000   0.00000   1.87125
   A12        1.87967   0.00000   0.00000   0.00000   0.00000   1.87967
   A13        1.92294   0.00000   0.00000   0.00000   0.00000   1.92294
   A14        1.99263   0.00000   0.00000   0.00000   0.00000   1.99263
   A15        1.92929   0.00000   0.00000   0.00000   0.00000   1.92929
   A16        1.94228   0.00000   0.00000   0.00000   0.00000   1.94228
   A17        1.85469   0.00000   0.00000   0.00000   0.00000   1.85469
   A18        1.90440   0.00000   0.00000   0.00000   0.00000   1.90440
   A19        1.91429   0.00000   0.00000   0.00000   0.00000   1.91429
   A20        1.91845   0.00000   0.00000   0.00000   0.00000   1.91845
   A21        1.83545   0.00000   0.00000   0.00000   0.00000   1.83545
   A22        1.82526   0.00000   0.00000   0.00000   0.00000   1.82526
   A23        1.81631   0.00000   0.00000   0.00000   0.00000   1.81631
   A24        1.99329   0.00000   0.00000   0.00000   0.00000   1.99329
   A25        1.98600   0.00000   0.00000   0.00000   0.00000   1.98600
   A26        1.98281   0.00000   0.00000   0.00000   0.00000   1.98282
   A27        3.15238   0.00000   0.00000   0.00000   0.00000   3.15238
   A28        3.19295   0.00000   0.00000   0.00000   0.00000   3.19295
    D1       -3.11808   0.00000   0.00000   0.00000   0.00000  -3.11808
    D2       -1.04164   0.00000   0.00000   0.00000   0.00000  -1.04164
    D3        1.07712   0.00000   0.00000   0.00000   0.00000   1.07712
    D4        0.91994   0.00000   0.00000   0.00000   0.00000   0.91994
    D5       -1.24186   0.00000   0.00000   0.00000   0.00000  -1.24186
    D6        2.94586   0.00000   0.00000   0.00000   0.00000   2.94586
    D7       -1.01350   0.00000   0.00000   0.00000   0.00000  -1.01350
    D8        3.05376   0.00000   0.00000   0.00000   0.00000   3.05376
    D9        1.01294   0.00000   0.00000   0.00000   0.00000   1.01294
   D10        2.69133   0.00000   0.00000   0.00000   0.00000   2.69133
   D11        0.58445   0.00000   0.00000   0.00000   0.00000   0.58445
   D12       -1.49025   0.00000   0.00000   0.00000   0.00000  -1.49025
   D13       -1.50712   0.00000   0.00000   0.00000   0.00000  -1.50712
   D14        2.66919   0.00000   0.00000   0.00000   0.00000   2.66919
   D15        0.59449   0.00000   0.00000   0.00000   0.00000   0.59449
   D16        0.54429   0.00000   0.00000   0.00000   0.00000   0.54430
   D17       -1.56259   0.00000   0.00000   0.00000   0.00000  -1.56259
   D18        2.64590   0.00000   0.00000   0.00000   0.00000   2.64590
   D19       -1.05493   0.00000   0.00000   0.00000   0.00000  -1.05493
   D20        1.06417   0.00000   0.00000   0.00000   0.00000   1.06417
   D21       -3.13090   0.00000   0.00000   0.00000   0.00000  -3.13090
         Item               Value     Threshold  Converged?
 Maximum Force            0.000001     0.000450     YES
 RMS     Force            0.000000     0.000300     YES
 Maximum Displacement     0.000002     0.001800     YES
 RMS     Displacement     0.000001     0.001200     YES
 Predicted change in Energy=-1.874623D-12
 Optimization completed.
    -- Stationary point found.
                           ----------------------------
                           !   Optimized Parameters   !
                           ! (Angstroms and Degrees)  !
 --------------------------                            --------------------------
 ! Name  Definition              Value          Derivative Info.                !
 --------------------------------------------------------------------------------
 ! R1    R(1,2)                  1.0885         -DE/DX =    0.0                 !
 ! R2    R(1,3)                  1.0956         -DE/DX =    0.0                 !
 ! R3    R(1,4)                  1.0932         -DE/DX =    0.0                 !
 ! R4    R(1,5)                  1.4291         -DE/DX =    0.0                 !
 ! R5    R(5,6)                  1.3867         -DE/DX =    0.0                 !
 ! R6    R(6,7)                  1.0945         -DE/DX =    0.0                 !
 ! R7    R(6,8)                  1.3861         -DE/DX =    0.0                 !
 ! R8    R(6,13)                 1.3121         -DE/DX =    0.0                 !
 ! R9    R(8,9)                  1.4278         -DE/DX =    0.0                 !
 ! R10   R(9,10)                 1.0941         -DE/DX =    0.0                 !
 ! R11   R(9,11)                 1.092          -DE/DX =    0.0                 !
 ! R12   R(9,12)                 1.088          -DE/DX =    0.0                 !
 ! R13   R(13,14)                1.389          -DE/DX =    0.0                 !
 ! R14   R(14,15)                1.0871         -DE/DX =    0.0                 !
 ! R15   R(14,16)                1.0864         -DE/DX =    0.0                 !
 ! R16   R(14,17)                1.0868         -DE/DX =    0.0                 !
 ! A1    A(2,1,3)              109.5171         -DE/DX =    0.0                 !
 ! A2    A(2,1,4)              109.794          -DE/DX =    0.0                 !
 ! A3    A(2,1,5)              106.6365         -DE/DX =    0.0                 !
 ! A4    A(3,1,4)              109.1742         -DE/DX =    0.0                 !
 ! A5    A(3,1,5)              110.5469         -DE/DX =    0.0                 !
 ! A6    A(4,1,5)              111.1357         -DE/DX =    0.0                 !
 ! A7    A(1,5,6)              113.5402         -DE/DX =    0.0                 !
 ! A8    A(5,6,7)              113.201          -DE/DX =    0.0                 !
 ! A9    A(5,6,8)              115.1696         -DE/DX =    0.0                 !
 ! A10   A(5,6,13)             103.1283         -DE/DX =    0.0                 !
 ! A11   A(7,6,8)              107.2148         -DE/DX =    0.0                 !
 ! A12   A(7,6,13)             107.6974         -DE/DX =    0.0                 !
 ! A13   A(8,6,13)             110.1766         -DE/DX =    0.0                 !
 ! A14   A(6,8,9)              114.1695         -DE/DX =    0.0                 !
 ! A15   A(8,9,10)             110.5402         -DE/DX =    0.0                 !
 ! A16   A(8,9,11)             111.2844         -DE/DX =    0.0                 !
 ! A17   A(8,9,12)             106.2657         -DE/DX =    0.0                 !
 ! A18   A(10,9,11)            109.1141         -DE/DX =    0.0                 !
 ! A19   A(10,9,12)            109.6809         -DE/DX =    0.0                 !
 ! A20   A(11,9,12)            109.9192         -DE/DX =    0.0                 !
 ! A21   A(13,14,15)           105.1633         -DE/DX =    0.0                 !
 ! A22   A(13,14,16)           104.5799         -DE/DX =    0.0                 !
 ! A23   A(13,14,17)           104.0667         -DE/DX =    0.0                 !
 ! A24   A(15,14,16)           114.2069         -DE/DX =    0.0                 !
 ! A25   A(15,14,17)           113.7892         -DE/DX =    0.0                 !
 ! A26   A(16,14,17)           113.6069         -DE/DX =    0.0                 !
 ! A27   L(6,13,14,10,-1)      180.618          -DE/DX =    0.0                 !
 ! A28   L(6,13,14,10,-2)      182.9424         -DE/DX =    0.0                 !
 ! D1    D(2,1,5,6)           -178.6529         -DE/DX =    0.0                 !
 ! D2    D(3,1,5,6)            -59.6817         -DE/DX =    0.0                 !
 ! D3    D(4,1,5,6)             61.7143         -DE/DX =    0.0                 !
 ! D4    D(1,5,6,7)             52.7084         -DE/DX =    0.0                 !
 ! D5    D(1,5,6,8)            -71.1534         -DE/DX =    0.0                 !
 ! D6    D(1,5,6,13)           168.7854         -DE/DX =    0.0                 !
 ! D7    D(5,6,8,9)            -58.0694         -DE/DX =    0.0                 !
 ! D8    D(7,6,8,9)            174.9676         -DE/DX =    0.0                 !
 ! D9    D(13,6,8,9)            58.0374         -DE/DX =    0.0                 !
 ! D10   D(5,6,14,15)          154.2017         -DE/DX =    0.0                 !
 ! D11   D(5,6,14,16)           33.4863         -DE/DX =    0.0                 !
 ! D12   D(5,6,14,17)          -85.385          -DE/DX =    0.0                 !
 ! D13   D(7,6,14,15)          -86.3515         -DE/DX =    0.0                 !
 ! D14   D(7,6,14,16)          152.9331         -DE/DX =    0.0                 !
 ! D15   D(7,6,14,17)           34.0618         -DE/DX =    0.0                 !
 ! D16   D(8,6,14,15)           31.1858         -DE/DX =    0.0                 !
 ! D17   D(8,6,14,16)          -89.5297         -DE/DX =    0.0                 !
 ! D18   D(8,6,14,17)          151.5991         -DE/DX =    0.0                 !
 ! D19   D(6,8,9,10)           -60.443          -DE/DX =    0.0                 !
 ! D20   D(6,8,9,11)            60.9727         -DE/DX =    0.0                 !
 ! D21   D(6,8,9,12)          -179.3875         -DE/DX =    0.0                 !
 --------------------------------------------------------------------------------
 Iteration  1 RMS(Cart)=  0.03138967 RMS(Int)=  0.02165417
 Iteration  2 RMS(Cart)=  0.01022053 RMS(Int)=  0.02071514
 Iteration  3 RMS(Cart)=  0.00050959 RMS(Int)=  0.02071222
 Iteration  4 RMS(Cart)=  0.00004784 RMS(Int)=  0.02071220
 Iteration  5 RMS(Cart)=  0.00000427 RMS(Int)=  0.02071220
 Iteration  6 RMS(Cart)=  0.00000041 RMS(Int)=  0.02071220
 Iteration  1 RMS(Cart)=  0.01679873 RMS(Int)=  0.00841092
 Iteration  2 RMS(Cart)=  0.00686517 RMS(Int)=  0.00936200
 Iteration  3 RMS(Cart)=  0.00278223 RMS(Int)=  0.01020751
 Iteration  4 RMS(Cart)=  0.00112392 RMS(Int)=  0.01060470
 Iteration  5 RMS(Cart)=  0.00045341 RMS(Int)=  0.01077274
 Iteration  6 RMS(Cart)=  0.00018281 RMS(Int)=  0.01084168
 Iteration  7 RMS(Cart)=  0.00007369 RMS(Int)=  0.01086967
 Iteration  8 RMS(Cart)=  0.00002970 RMS(Int)=  0.01088097
 Iteration  9 RMS(Cart)=  0.00001197 RMS(Int)=  0.01088554
 Iteration 10 RMS(Cart)=  0.00000483 RMS(Int)=  0.01088738
 Iteration 11 RMS(Cart)=  0.00000194 RMS(Int)=  0.01088812
 Iteration 12 RMS(Cart)=  0.00000078 RMS(Int)=  0.01088842
 GradGradGradGradGradGradGradGradGradGradGradGradGradGradGradGradGradGrad

                          Input orientation:                          
 ---------------------------------------------------------------------
 Center     Atomic      Atomic             Coordinates (Angstroms)
 Number     Number       Type             X           Y           Z
 ---------------------------------------------------------------------
      1          6           0       -2.171106   -0.734526   -0.154642
      2          1           0       -2.667614   -1.199054   -1.004704
      3          1           0       -2.412451   -1.289805    0.758482
      4          1           0       -2.510933    0.298924   -0.046827
      5          8           0       -0.767931   -0.790567   -0.419669
      6          6           0        0.009533   -0.257883    0.597549
      7          1           0       -0.215343   -0.683416    1.580538
      8          8           0       -0.050387    1.121173    0.723886
      9          6           0        0.331975    1.833209   -0.453130
     10          1           0        1.249575    1.412217   -0.880338
     11          1           0       -0.408644    1.626640   -1.229117
     12          1           0        0.354281    2.900584   -0.241713
     13          1           0        1.224432   -0.629977    0.270156
     14          6           0        2.481591   -1.068009   -0.126100
     15          1           0        3.179953   -0.355085    0.304896
     16          1           0        2.445840   -1.055082   -1.211873
     17          1           0        2.558403   -2.066911    0.295107
 ---------------------------------------------------------------------
                    Distance matrix (angstroms):
                    1          2          3          4          5
     1  C    0.000000
     2  H    1.088537   0.000000
     3  H    1.095617   1.783863   0.000000
     4  H    1.093218   1.784941   1.783895   0.000000
     5  O    1.429083   2.029266   2.083681   2.089033   0.000000
     6  C    2.355454   3.258855   2.637569   2.660451   1.386700
     7  H    2.615046   3.600415   2.422967   2.980443   2.077899
     8  O    2.951759   3.901455   3.375405   2.706359   2.340372
     9  C    3.598302   4.300743   4.330484   3.255954   2.845192
    10  H    4.103194   4.709413   4.837054   4.009437   3.022384
    11  H    3.136220   3.624617   4.058502   2.753226   2.574332
    12  H    4.427097   5.149858   5.120015   3.875057   3.862076
    13  H    3.423604   4.134869   3.728372   3.862161   2.114512
    14  C    4.664720   5.225268   4.978286   5.176880   3.274531
    15  H    5.384142   6.051560   5.688096   5.739131   4.037379
    16  H    4.747282   5.119674   5.247894   5.268801   3.320524
    17  H    4.934144   5.454717   5.052525   5.604664   3.633794
                    6          7          8          9         10
     6  C    0.000000
     7  H    1.094493   0.000000
     8  O    1.386126   2.004396   0.000000
     9  C    2.362321   3.281580   1.427782   0.000000
    10  H    2.551684   3.548743   2.085220   1.096235   0.000000
    11  H    2.657631   3.642510   2.048918   1.092403   1.708015
    12  H    3.286202   4.060804   2.064568   1.088340   1.850576
    13  H    1.312105   1.947539   2.213043   2.717887   2.344105
    14  C    2.700194   3.214651   3.453391   3.625585   2.870237
    15  H    3.185382   3.641855   3.576309   3.670724   2.873064
    16  H    3.137695   3.875254   3.835935   3.658735   2.761979
    17  H    3.140190   3.355602   4.141681   4.552777   3.898594
                   11         12         13         14         15
    11  H    0.000000
    12  H    1.783243   0.000000
    13  H    3.163397   3.672062   0.000000
    14  C    4.102589   4.504281   1.389007   0.000000
    15  H    4.377037   4.345410   1.975053   1.087074   0.000000
    16  H    3.916632   4.578551   1.966968   1.086439   1.824694
    17  H    4.976841   5.460984   1.960837   1.086794   1.821200
                   16         17
    16  H    0.000000
    17  H    1.818642   0.000000
 Stoichiometry    C4H11O2(2)
 Framework group  C1[X(C4H11O2)]
 Deg. of freedom    45
 Full point group                 C1      NOp   1
 Largest Abelian subgroup         C1      NOp   1
 Largest concise Abelian subgroup C1      NOp   1
                         Standard orientation:                         
 ---------------------------------------------------------------------
 Center     Atomic      Atomic             Coordinates (Angstroms)
 Number     Number       Type             X           Y           Z
 ---------------------------------------------------------------------
      1          6           0       -2.171678   -0.750420   -0.141267
      2          1           0       -2.671041   -1.222418   -0.985521
      3          1           0       -2.404932   -1.301290    0.776617
      4          1           0       -2.515754    0.282052   -0.037646
      5          8           0       -0.769860   -0.801458   -0.414362
      6          6           0        0.011126   -0.258971    0.594946
      7          1           0       -0.205857   -0.679599    1.581813
      8          8           0       -0.054580    1.120527    0.713328
      9          6           0        0.317367    1.827217   -0.470229
     10          1           0        1.234388    1.407971   -0.900388
     11          1           0       -0.426882    1.612469   -1.240501
     12          1           0        0.335871    2.895946   -0.265385
     13          1           0        1.225801   -0.627316    0.262522
     14          6           0        2.482636   -1.061816   -0.138621
     15          1           0        3.180169   -0.343015    0.283875
     16          1           0        2.440344   -1.055631   -1.224219
     17          1           0        2.566699   -2.057777    0.288130
 ---------------------------------------------------------------------
 Rotational constants (GHZ):      3.5918349      2.3705705      1.6773299
 Standard basis: 6-311++G(d,p) (5D, 7F)
 There are   215 symmetry adapted cartesian basis functions of A   symmetry.
 There are   209 symmetry adapted basis functions of A   symmetry.
   209 basis functions,   315 primitive gaussians,   215 cartesian basis functions
    26 alpha electrons       25 beta electrons
       nuclear repulsion energy       264.2886857994 Hartrees.
 NAtoms=   17 NActive=   17 NUniq=   17 SFac= 1.00D+00 NAtFMM=   60 NAOKFM=F Big=F
 Integral buffers will be    131072 words long.
 Regular integral format.
 Two-electron integral symmetry is turned on.
 Nuclear repulsion after empirical dispersion term =      264.2806105757 Hartrees.
 One-electron integrals computed using PRISM.
 NBasis=   209 RedAO= T EigKep=  7.61D-05  NBF=   209
 NBsUse=   209 1.00D-06 EigRej= -1.00D+00 NBFU=   209
[...]
     7  H    0.648029  -0.117079   0.011838  -0.002599   0.000384  -0.001721
     8  O   -0.117079   8.115270   0.165850  -0.043953  -0.039037  -0.064955
     9  C    0.011838   0.165850   5.081033   0.375979   0.417017   0.411912
    10  H   -0.002599  -0.043953   0.375979   0.624634  -0.068784  -0.026230
    11  H    0.000384  -0.039037   0.417017  -0.068784   0.586431  -0.027181
    12  H   -0.001721  -0.064955   0.411912  -0.026230  -0.027181   0.533299
    13  H   -0.116789   0.030794  -0.006759   0.010033  -0.002337  -0.005986
    14  C    0.017102   0.011570   0.021666  -0.023915   0.005713   0.000662
    15  H    0.002138   0.000905  -0.000624   0.000245   0.000476  -0.000342
    16  H    0.002485  -0.003025   0.005466  -0.002199  -0.001821   0.000564
    17  H    0.000413   0.001079   0.000450  -0.001519   0.000608   0.000350
              13         14         15         16         17
     1  C   -0.011870  -0.004619   0.001319   0.001817  -0.000003
     2  H   -0.006135   0.002292  -0.000042   0.000041  -0.000137
     3  H    0.001570   0.001636   0.000096  -0.000237  -0.000003
     4  H   -0.000836  -0.001698  -0.000028   0.000414  -0.000007
     5  O   -0.081614   0.017043   0.000517   0.001023  -0.000785
     6  C   -0.023614  -0.258410   0.006494   0.011757   0.018666
     7  H   -0.116789   0.017102   0.002138   0.002485   0.000413
     8  O    0.030794   0.011570   0.000905  -0.003025   0.001079
     9  C   -0.006759   0.021666  -0.000624   0.005466   0.000450
    10  H    0.010033  -0.023915   0.000245  -0.002199  -0.001519
    11  H   -0.002337   0.005713   0.000476  -0.001821   0.000608
    12  H   -0.005986   0.000662  -0.000342   0.000564   0.000350
    13  H    0.970760   0.144574  -0.043341  -0.050711  -0.039671
    14  C    0.144574   5.412784   0.400092   0.402880   0.385094
    15  H   -0.043341   0.400092   0.554879  -0.034435  -0.027762
    16  H   -0.050711   0.402880  -0.034435   0.540981  -0.025259
    17  H   -0.039671   0.385094  -0.027762  -0.025259   0.551964
          Atomic-Atomic Spin Densities.
               1          2          3          4          5          6
     1  C    0.058356  -0.006052  -0.002767   0.000666  -0.025111   0.012329
     2  H   -0.006052   0.004391   0.000846  -0.000560   0.002947  -0.002157
     3  H   -0.002767   0.000846  -0.001008   0.000193   0.001543  -0.000972
     4  H    0.000666  -0.000560   0.000193  -0.001433  -0.000368   0.001391
     5  O   -0.025111   0.002947   0.001543  -0.000368   0.057160  -0.127775
     6  C    0.012329  -0.002157  -0.000972   0.001391  -0.127775   1.032460
     7  H   -0.008619   0.000185   0.000703  -0.000490   0.007011  -0.041423
     8  O    0.009092  -0.000906  -0.000604   0.000280   0.002996  -0.111281
     9  C   -0.002841   0.000474   0.000268  -0.000680   0.003768  -0.021890
    10  H    0.001735  -0.000265  -0.000091   0.000183  -0.002805   0.025475
    11  H   -0.000825   0.000133  -0.000044   0.000035   0.000508  -0.002978
    12  H    0.000272  -0.000032  -0.000033   0.000032  -0.000282   0.001193
    13  H   -0.009839   0.003291   0.001533  -0.000681   0.049030  -0.033175
    14  C   -0.010809   0.001166   0.001394  -0.001053   0.033052  -0.299438
    15  H    0.000239  -0.000077  -0.000080   0.000059  -0.001757   0.011342
    16  H    0.000825  -0.000247  -0.000090   0.000091  -0.003188   0.010982
    17  H    0.000500  -0.000131  -0.000122   0.000067  -0.002472   0.010950
               7          8          9         10         11         12
     1  C   -0.008619   0.009092  -0.002841   0.001735  -0.000825   0.000272
     2  H    0.000185  -0.000906   0.000474  -0.000265   0.000133  -0.000032
     3  H    0.000703  -0.000604   0.000268  -0.000091  -0.000044  -0.000033
     4  H   -0.000490   0.000280  -0.000680   0.000183   0.000035   0.000032
     5  O    0.007011   0.002996   0.003768  -0.002805   0.000508  -0.000282
     6  C   -0.041423  -0.111281  -0.021890   0.025475  -0.002978   0.001193
     7  H   -0.007703   0.000719   0.000815  -0.000669   0.000061  -0.000057
     8  O    0.000719   0.118172  -0.002770  -0.003417  -0.000534  -0.000022
     9  C    0.000815  -0.002770   0.008299  -0.005570   0.001885   0.000701
    10  H   -0.000669  -0.003417  -0.005570   0.008639  -0.001193   0.000155
    11  H    0.000061  -0.000534   0.001885  -0.001193   0.001712  -0.000048
    12  H   -0.000057  -0.000022   0.000701   0.000155  -0.000048  -0.001276
    13  H    0.034727   0.010625   0.010591  -0.011400   0.001784  -0.001126
    14  C    0.004942   0.022750   0.008473  -0.011906   0.000383  -0.000415
    15  H   -0.000822  -0.001881  -0.000655   0.001715  -0.000080   0.000105
    16  H   -0.001105  -0.001177  -0.000278   0.001554  -0.000153   0.000115
    17  H   -0.000921  -0.000964  -0.000306   0.000478  -0.000033   0.000063
              13         14         15         16         17
     1  C   -0.009839  -0.010809   0.000239   0.000825   0.000500
     2  H    0.003291   0.001166  -0.000077  -0.000247  -0.000131
     3  H    0.001533   0.001394  -0.000080  -0.000090  -0.000122
     4  H   -0.000681  -0.001053   0.000059   0.000091   0.000067
     5  O    0.049030   0.033052  -0.001757  -0.003188  -0.002472
     6  C   -0.033175  -0.299438   0.011342   0.010982   0.010950
     7  H    0.034727   0.004942  -0.000822  -0.001105  -0.000921
     8  O    0.010625   0.022750  -0.001881  -0.001177  -0.000964
     9  C    0.010591   0.008473  -0.000655  -0.000278  -0.000306
    10  H   -0.011400  -0.011906   0.001715   0.001554   0.000478
    11  H    0.001784   0.000383  -0.000080  -0.000153  -0.000033
    12  H   -0.001126  -0.000415   0.000105   0.000115   0.000063
    13  H   -0.341952   0.124957   0.013695   0.014397   0.014283
    14  C    0.124957   0.897899  -0.028256  -0.028966  -0.027334
    15  H    0.013695  -0.028256  -0.022396   0.001996   0.001446
    16  H    0.014397  -0.028966   0.001996  -0.021906   0.001480
    17  H    0.014283  -0.027334   0.001446   0.001480  -0.022633
 Mulliken charges and spin densities:
               1          2
     1  C   -0.232603   0.017151
     2  H    0.147437   0.003008
     3  H    0.130528   0.000669
     4  H    0.142809  -0.002269
     5  O   -0.158969  -0.005743
     6  C   -0.313436   0.465033
     7  H    0.156438  -0.012646
     8  O   -0.171807   0.041079
     9  C   -0.251413   0.000283
    10  H    0.133873   0.002619
    11  H    0.136814   0.000614
    12  H    0.156664  -0.000657
    13  H    0.231931  -0.119260
    14  C   -0.534465   0.686842
    15  H    0.139415  -0.025407
    16  H    0.150261  -0.025668
    17  H    0.136523  -0.025648
 Sum of Mulliken charges =   0.00000   1.00000
 Mulliken charges and spin densities with hydrogens summed into heavy atoms:
               1          2
     1  C    0.188171   0.018559
     5  O   -0.158969  -0.005743
     6  C    0.074934   0.333128
     8  O   -0.171807   0.041079
     9  C    0.175938   0.002859
    14  C   -0.108267   0.610119
 Electronic spatial extent (au):  <R**2>=            807.9704
 Charge=              0.0000 electrons
 Dipole moment (field-independent basis, Debye):
    X=             -0.7736    Y=              0.2410    Z=             -0.2582  Tot=              0.8504
 Quadrupole moment (field-independent basis, Debye-Ang):
   XX=            -36.7721   YY=            -39.1784   ZZ=            -40.5658
   XY=              1.8816   XZ=              0.0840   YZ=             -3.9689
 Traceless Quadrupole moment (field-independent basis, Debye-Ang):
   XX=              2.0667   YY=             -0.3396   ZZ=             -1.7271
   XY=              1.8816   XZ=              0.0840   YZ=             -3.9689
 Octapole moment (field-independent basis, Debye-Ang**2):
  XXX=            -19.8910  YYY=              8.8564  ZZZ=              0.0017  XYY=             -1.9029
  XXY=              0.1125  XXZ=             -0.2567  XZZ=             -2.6938  YZZ=             -2.2694
  YYZ=             -1.3887  XYZ=             -0.3206
 Hexadecapole moment (field-independent basis, Debye-Ang**3):
 XXXX=           -625.3226 YYYY=           -342.9164 ZZZZ=           -116.6423 XXXY=             27.5220
 XXXZ=             12.9544 YYYX=              6.3878 YYYZ=             -3.5391 ZZZX=              0.8240
 ZZZY=             -0.1355 XXYY=           -163.1443 XXZZ=           -120.7888 YYZZ=            -82.6235
 XXYZ=              0.7410 YYXZ=              2.9051 ZZXY=              3.9787
 N-N= 2.640950715094D+02 E-N=-1.251252590003D+03  KE= 3.079728022948D+02
                          Isotropic Fermi Contact Couplings
        Atom                 a.u.       MegaHertz       Gauss      10(-4) cm-1
     1  C(13)              0.02338      26.28368       9.37867       8.76729
     2  H(1)               0.00074       3.32518       1.18651       1.10916
     3  H(1)              -0.00026      -1.17315      -0.41861      -0.39132
     4  H(1)              -0.00042      -1.89271      -0.67537      -0.63134
     5  O(17)              0.06202     -37.59740     -13.41569     -12.54114
     6  C(13)              0.26248     295.07659     105.29066      98.42696
     7  H(1)              -0.00017      -0.77667      -0.27713      -0.25907
     8  O(17)              0.00842      -5.10213      -1.82057      -1.70189
     9  C(13)              0.00236       2.64786       0.94482       0.88323
    10  H(1)               0.00154       6.89998       2.46208       2.30159
    11  H(1)               0.00057       2.57012       0.91708       0.85730
    12  H(1)              -0.00021      -0.94883      -0.33857      -0.31650
    13  H(1)              -0.03171    -141.74483     -50.57808     -47.28099
    14  C(13)              0.20158     226.61146      80.86060      75.58945
    15  H(1)              -0.00655     -29.28413     -10.44931      -9.76814
    16  H(1)              -0.00681     -30.44968     -10.86520     -10.15692
    17  H(1)              -0.00655     -29.28379     -10.44918      -9.76802
 --------------------------------------------------------
       Center         ----  Spin Dipole Couplings  ----
                      3XX-RR        3YY-RR        3ZZ-RR
 --------------------------------------------------------
     1   Atom        0.035938     -0.017419     -0.018519
     2   Atom        0.003043     -0.002489     -0.000554
     3   Atom        0.005251     -0.003269     -0.001982
     4   Atom        0.005729     -0.001320     -0.004409
     5   Atom        0.056621     -0.024942     -0.031679
     6   Atom        0.466568     -0.251469     -0.215098
     7   Atom       -0.006632     -0.020425      0.027057
     8   Atom        0.244677     -0.082604     -0.162073
     9   Atom       -0.006222      0.004623      0.001599
    10   Atom       -0.002875      0.006153     -0.003278
    11   Atom       -0.002776      0.000735      0.002041
    12   Atom       -0.002785      0.005515     -0.002731
    13   Atom        0.177604     -0.085175     -0.092429
    14   Atom        0.496423     -0.235913     -0.260510
    15   Atom        0.025901      0.000796     -0.026696
    16   Atom       -0.008513     -0.039795      0.048308
    17   Atom       -0.008764      0.034961     -0.026197
 --------------------------------------------------------
                        XY            XZ            YZ
 --------------------------------------------------------
     1   Atom       -0.003557      0.002661     -0.000157
     2   Atom        0.001537      0.003019      0.001970
     3   Atom        0.003915     -0.002689     -0.001461
     4   Atom       -0.002712      0.001780      0.000295
     5   Atom       -0.013801      0.003853     -0.007332
     6   Atom       -0.214580     -0.264890      0.066756
     7   Atom       -0.001913     -0.019341     -0.022674
     8   Atom       -0.206654     -0.060316      0.021490
     9   Atom        0.000149     -0.004553     -0.008965
    10   Atom        0.000604     -0.002433     -0.006207
    11   Atom       -0.002873      0.002278     -0.004998
    12   Atom       -0.000483     -0.000393     -0.002583
    13   Atom       -0.098009     -0.085680      0.027918
    14   Atom       -0.307043     -0.270802      0.098661
    15   Atom        0.024671      0.010798      0.028014
    16   Atom       -0.012755     -0.005934      0.003168
    17   Atom       -0.016931     -0.009360     -0.028926
 --------------------------------------------------------


 ---------------------------------------------------------------------------------
              Anisotropic Spin Dipole Couplings in Principal Axis System
 ---------------------------------------------------------------------------------

       Atom             a.u.   MegaHertz   Gauss  10(-4) cm-1        Axes

              Baa    -0.0186    -2.502    -0.893    -0.835 -0.0497 -0.0161  0.9986
     1 C(13)  Bbb    -0.0177    -2.369    -0.845    -0.790  0.0653  0.9977  0.0193
              Bcc     0.0363     4.872     1.738     1.625  0.9966 -0.0661  0.0486
 
              Baa    -0.0037    -1.994    -0.711    -0.665  0.0692  0.8176 -0.5717
     2 H(1)   Bbb    -0.0017    -0.910    -0.325    -0.303 -0.5740  0.5013  0.6475
              Bcc     0.0054     2.903     1.036     0.968  0.8159  0.2833  0.5039
 
              Baa    -0.0049    -2.596    -0.926    -0.866 -0.3129  0.9325  0.1806
     3 H(1)   Bbb    -0.0029    -1.527    -0.545    -0.509  0.3428 -0.0665  0.9371
              Bcc     0.0077     4.123     1.471     1.375  0.8858  0.3551 -0.2988
 
              Baa    -0.0049    -2.615    -0.933    -0.872 -0.2205 -0.2448  0.9441
     4 H(1)   Bbb    -0.0020    -1.054    -0.376    -0.352  0.2550  0.9199  0.2981
              Bcc     0.0069     3.669     1.309     1.224  0.9415 -0.3065  0.1404
 
              Baa    -0.0366     2.648     0.945     0.883  0.0513  0.5747  0.8168
     5 O(17)  Bbb    -0.0226     1.633     0.583     0.545  0.1676  0.8013 -0.5743
              Bcc     0.0592    -4.281    -1.528    -1.428  0.9845 -0.1664  0.0552
 
              Baa    -0.3143   -42.179   -15.050   -14.069  0.3831  0.7766  0.5002
     6 C(13)  Bbb    -0.3013   -40.428   -14.426   -13.485  0.1171 -0.5780  0.8076
              Bcc     0.6156    82.607    29.476    27.555  0.9163 -0.2508 -0.3123
 
              Baa    -0.0331   -17.680    -6.309    -5.897  0.3728  0.8224  0.4296
     7 H(1)   Bbb    -0.0092    -4.919    -1.755    -1.641  0.8639 -0.4766  0.1627
              Bcc     0.0424    22.599     8.064     7.538 -0.3386 -0.3105  0.8882
 
              Baa    -0.1856    13.428     4.792     4.479  0.4418  0.8034  0.3993
     8 O(17)  Bbb    -0.1669    12.079     4.310     4.029 -0.0733 -0.4112  0.9086
              Bcc     0.3525   -25.507    -9.102    -8.508  0.8941 -0.4307 -0.1228
 
              Baa    -0.0097    -1.303    -0.465    -0.435  0.7371  0.3528  0.5764
     9 C(13)  Bbb    -0.0030    -0.403    -0.144    -0.134  0.6555 -0.5806 -0.4828
              Bcc     0.0127     1.706     0.609     0.569  0.1643  0.7337 -0.6593
 
              Baa    -0.0072    -3.857    -1.376    -1.286  0.4143  0.3675  0.8326
    10 H(1)   Bbb    -0.0022    -1.185    -0.423    -0.395  0.9004 -0.2992 -0.3160
              Bcc     0.0095     5.042     1.799     1.682  0.1330  0.8806 -0.4548
 
              Baa    -0.0045    -2.393    -0.854    -0.798  0.7604  0.6159  0.2063
    11 H(1)   Bbb    -0.0032    -1.703    -0.608    -0.568 -0.5611  0.4628  0.6863
              Bcc     0.0077     4.096     1.462     1.366  0.3272 -0.6375  0.6975
 
              Baa    -0.0037    -2.000    -0.713    -0.667  0.4735  0.2593  0.8417
    12 H(1)   Bbb    -0.0025    -1.347    -0.480    -0.449  0.8799 -0.0966 -0.4652
              Bcc     0.0063     3.346     1.194     1.116 -0.0393  0.9609 -0.2740
 
              Baa    -0.1180   -62.958   -22.465   -21.000  0.4002  0.7624  0.5086
    13 H(1)   Bbb    -0.1169   -62.393   -22.264   -20.812  0.0481 -0.5716  0.8191
              Bcc     0.2349   125.351    44.728    41.813  0.9152 -0.3033 -0.2654
 
              Baa    -0.3477   -46.656   -16.648   -15.563  0.1679  0.8702 -0.4632
    14 C(13)  Bbb    -0.3474   -46.613   -16.633   -15.549  0.4029  0.3682  0.8379
              Bcc     0.6951    93.269    33.281    31.111  0.8997 -0.3273 -0.2888
 
              Baa    -0.0444   -23.695    -8.455    -7.904  0.0657 -0.5513  0.8317
    15 H(1)   Bbb    -0.0047    -2.497    -0.891    -0.833  0.6510 -0.6080 -0.4544
              Bcc     0.0491    26.193     9.346     8.737  0.7563  0.5713  0.3189
 
              Baa    -0.0443   -23.661    -8.443    -7.893  0.3337  0.9426 -0.0109
    16 H(1)   Bbb    -0.0048    -2.563    -0.915    -0.855  0.9358 -0.3299  0.1242
              Bcc     0.0492    26.225     9.358     8.748 -0.1135  0.0516  0.9922
 
              Baa    -0.0443   -23.643    -8.436    -7.886  0.4032  0.3885  0.8286
    17 H(1)   Bbb    -0.0049    -2.604    -0.929    -0.869  0.8892  0.0476 -0.4550
              Bcc     0.0492    26.247     9.366     8.755 -0.2161  0.9202 -0.3262
 

 ---------------------------------------------------------------------------------

 1\1\GINC-LINUXBMC0033\Scan\UB2PLYPD3-FC\6-311++G(d,p)\C4H11O2(2)\LK285
 148\05-Aug-2016\0\\# opt=(TS, calcfc, noeigentest, modredundant) 6-311
 ++g(d,p) geom=connectivity b2plypd3 int=grid=199974 scf=(conver=11,xqc
 )\\Title Card Required\\0,2\C,-1.9625921544,-1.2075943343,-0.400630055
 8\H,-2.2072016594,-1.8696782574,-1.2293122095\H,-2.2624450925,-1.67630
 27646,0.5431757585\H,-2.4940012077,-0.2591329601,-0.5152522092\O,-0.54
 72859551,-1.0128936507,-0.4365320647\C,-0.0732148298,-0.2053536988,0.5
 862335145\H,-0.3922917701,-0.5358270129,1.5796556002\O,-0.3989220996,1
 .1374697704,0.4764529664\C,0.056300052,1.7529515753,-0.7287711355\H,1.
 1466632533,1.6979755391,-0.7997374707\H,-0.3837797319,1.2770619823,-1.
 6076520819\H,-0.2554334008,2.7940089809,-0.6758782327\H,1.2272671776,-
 0.3631120667,0.5120734878\C,2.5929972226,-0.5808370073,0.3830255595\H,
 3.0630522408,0.3099064959,0.7921105668\H,2.7484880126,-0.7168581179,-0
 .6835923315\H,2.7735779423,-1.4793524733,0.9671293378\\Version=ES64L-G
 09RevD.01\State=2-A\HF=-308.825608,-308.8253263,-308.8246432,-308.8239
 23,-308.8236117,-308.8239076,-308.8246466,-308.8253298,-308.8256079,-3
 08.8253735,-308.8247055,-308.823954,-308.8236119,-308.8239175,-308.824
 6703,-308.8253445,-308.8256086,-308.8253544,-308.8246623,-308.8239138,
 -308.8236123,-308.8239657,-308.8247345,-308.8253826,-308.8256078\MP2=-
 309.1615405,-309.161276,-309.1605686,-309.1598086,-309.1594857,-309.15
 97926,-309.1605344,-309.1612392,-309.1615381,-309.1613203,-309.1606315
 ,-309.1598394,-309.1594858,-309.1598052,-309.1605612,-309.1612535,-309
 .1615392,-309.161304,-309.1605908,-309.1597994,-309.1594869,-309.15985
 24,-309.1606239,-309.1612923,-309.1615405\S2=0.766482,0.766481,0.76647
 2,0.766462,0.76646,0.766466,0.766465,0.766474,0.766482,0.766481,0.7664
 73,0.766464,0.76646,0.766465,0.766464,0.766473,0.766482,0.766481,0.766
 473,0.766464,0.76646,0.766465,0.766464,0.766473,0.766482\S2-1=0.,0.,0.
 ,0.,0.,0.,0.,0.,0.,0.,0.,0.,0.,0.,0.,0.,0.,0.,0.,0.,0.,0.,0.,0.,0.\S2A
 =0.750104,0.750104,0.750104,0.750104,0.750104,0.750104,0.750104,0.7501
 04,0.750104,0.750104,0.750104,0.750104,0.750104,0.750104,0.750104,0.75
 0104,0.750104,0.750104,0.750104,0.750104,0.750104,0.750104,0.750104,0.
 750104,0.750104\RMSD=8.885e-12,6.352e-12,8.761e-12,6.051e-12,4.974e-12
 ,6.396e-12,7.468e-12,7.620e-12,6.189e-12,5.760e-12,7.186e-12,7.055e-12
 ,9.499e-12,8.748e-12,9.722e-12,7.596e-12,4.966e-12,7.728e-12,8.272e-12
 ,6.224e-12,6.906e-12,7.404e-12,8.289e-12,5.163e-12,4.842e-12\PG=C01 [X
 (C4H11O2)]\\@


 IMAGINATION WILL OFTEN CARRY US TO WORLDS THAT NEVER WERE.
 BUT WITHOUT IT, WE GO NOWHERE. -- CARL SAGAN (COSMOS)
 Job cpu time:      16 days 18 hours 30 minutes 14.8 seconds.
 File lengths (MBytes):  RWF=  16988 Int=      0 D2E=      0 Chk=      9 Scr=      1
 Normal termination of Gaussian 09 at Fri Aug  5 22:12:36 2016.
