Title Card Required                                                     
Freq      RB2PLYPD3-FC                                                6-311++G(d,p)       
Number of atoms                            I               18
Info1-9                                    I   N=           9
          46          46           0           0           0         100
           6           2           1
Charge                                     I                0
Multiplicity                               I                1
Number of electrons                        I               62
Number of alpha electrons                  I               31
Number of beta electrons                   I               31
Number of basis functions                  I              246
Number of independent functions            I              246
Number of point charges in /Mol/           I                0
Number of translation vectors              I                0
Atomic numbers                             I   N=          18
           6           6           6           6           8           1
           1           1           6           1           1           1
           8           1           6           1           1           1
Nuclear charges                            R   N=          18
  6.00000000E+00  6.00000000E+00  6.00000000E+00  6.00000000E+00  8.00000000E+00
  1.00000000E+00  1.00000000E+00  1.00000000E+00  6.00000000E+00  1.00000000E+00
  1.00000000E+00  1.00000000E+00  8.00000000E+00  1.00000000E+00  6.00000000E+00
  1.00000000E+00  1.00000000E+00  1.00000000E+00
Current cartesian coordinates              R   N=          54
  1.80067782E+00 -2.71281362E+00 -1.26434810E+00  2.04772017E+00 -2.80575010E+00
  1.29175932E+00  2.05734741E+00 -2.24574069E-01  2.13975060E+00  1.81431419E+00
  1.25055262E+00  3.41983554E-02  1.65047659E+00 -2.59288420E-01 -2.05993711E+00
  1.70344613E+00 -4.12606399E+00 -2.72345437E+00  2.21171825E+00 -4.48697907E+00
  2.42999160E+00  2.24670125E+00  4.49514512E-01  4.05387229E+00 -4.84169927E+00
 -6.16050547E-01 -8.83411867E-01 -3.65363777E+00  1.89050332E-02 -2.45451307E+00
 -4.66853465E+00 -2.67144209E+00 -7.09412877E-01 -6.80272776E+00 -1.56193696E-01
 -1.31060744E+00 -4.22450221E+00  6.39347752E-01  1.41137057E+00 -2.49122089E+00
  2.50802918E-01  1.80515877E+00  1.65613456E+00  4.02104944E+00 -3.90020149E-01
  3.13934942E+00  4.65919472E+00 -1.67696111E+00 -1.71985420E-01  4.53971121E+00
 -1.19822871E+00  1.87212707E+00  5.00759343E+00  1.40511822E+00
Force Field                                I                0
Int Atom Types                             I   N=          18
           0           0           0           0           0           0
           0           0           0           0           0           0
           0           0           0           0           0           0
MM charges                                 R   N=          18
  0.00000000E+00  0.00000000E+00  0.00000000E+00  0.00000000E+00  0.00000000E+00
  0.00000000E+00  0.00000000E+00  0.00000000E+00  0.00000000E+00  0.00000000E+00
  0.00000000E+00  0.00000000E+00  0.00000000E+00  0.00000000E+00  0.00000000E+00
  0.00000000E+00  0.00000000E+00  0.00000000E+00
Integer atomic weights                     I   N=          18
          12          12          12          12          16           1
           1           1          12           1           1           1
          16           1          12           1           1           1
Real atomic weights                        R   N=          18
  1.20000000E+01  1.20000000E+01  1.20000000E+01  1.20000000E+01  1.59949146E+01
  1.00782504E+00  1.00782504E+00  1.00782504E+00  1.20000000E+01  1.00782504E+00
  1.00782504E+00  1.00782504E+00  1.59949146E+01  1.00782504E+00  1.20000000E+01
  1.00782504E+00  1.00782504E+00  1.00782504E+00
Atom fragment info                         I   N=          18
           0           0           0           0           0           0
           0           0           0           0           0           0
           0           0           0           0           0           0
Atom residue num                           I   N=          18
           0           0           0           0           0           0
           0           0           0           0           0           0
           0           0           0           0           0           0
Nuclear spins                              I   N=          18
           0           0           0           0           0           1
           1           1           0           1           1           1
           0           1           0           1           1           1
Nuclear ZEff                               R   N=          18
 -3.60000000E+00 -3.60000000E+00 -3.60000000E+00 -3.60000000E+00 -5.60000000E+00
 -1.00000000E+00 -1.00000000E+00 -1.00000000E+00 -3.60000000E+00 -1.00000000E+00
 -1.00000000E+00 -1.00000000E+00 -5.60000000E+00 -1.00000000E+00 -3.60000000E+00
 -1.00000000E+00 -1.00000000E+00 -1.00000000E+00
Nuclear ZNuc                               R   N=          18
  6.00000000E+00  6.00000000E+00  6.00000000E+00  6.00000000E+00  8.00000000E+00
  1.00000000E+00  1.00000000E+00  1.00000000E+00  6.00000000E+00  1.00000000E+00
  1.00000000E+00  1.00000000E+00  8.00000000E+00  1.00000000E+00  6.00000000E+00
  1.00000000E+00  1.00000000E+00  1.00000000E+00
Nuclear QMom                               R   N=          18
  0.00000000E+00  0.00000000E+00  0.00000000E+00  0.00000000E+00  0.00000000E+00
  0.00000000E+00  0.00000000E+00  0.00000000E+00  0.00000000E+00  0.00000000E+00
  0.00000000E+00  0.00000000E+00  0.00000000E+00  0.00000000E+00  0.00000000E+00
  0.00000000E+00  0.00000000E+00  0.00000000E+00
Nuclear GFac                               R   N=          18
  0.00000000E+00  0.00000000E+00  0.00000000E+00  0.00000000E+00  0.00000000E+00
  2.79284600E+00  2.79284600E+00  2.79284600E+00  0.00000000E+00  2.79284600E+00
  2.79284600E+00  2.79284600E+00  0.00000000E+00  2.79284600E+00  0.00000000E+00
  2.79284600E+00  2.79284600E+00  2.79284600E+00
MicOpt                                     I   N=          18
          -1          -1          -1          -1          -1          -1
          -1          -1          -1          -1          -1          -1
          -1          -1          -1          -1          -1          -1
Number of contracted shells                I               98
Number of primitive shells                 I              174
Pure/Cartesian d shells                    I                0
Pure/Cartesian f shells                    I                0
Highest angular momentum                   I                2
Largest degree of contraction              I                6
Shell types                                I   N=          98
           0          -1          -1          -1          -1          -2
           0          -1          -1          -1          -1          -2
           0          -1          -1          -1          -1          -2
           0          -1          -1          -1          -1          -2
           0          -1          -1          -1          -1          -2
           0           0           0           0           1           0
           0           0           0           1           0           0
           0           0           1           0          -1          -1
          -1          -1          -2           0           0           0
           0           1           0           0           0           0
           1           0           0           0           0           1
           0          -1          -1          -1          -1          -2
           0           0           0           0           1           0
          -1          -1          -1          -1          -2           0
           0           0           0           1           0           0
           0           0           1           0           0           0
           0           1
Number of primitives per shell             I   N=          98
           6           3           1           1           1           1
           6           3           1           1           1           1
           6           3           1           1           1           1
           6           3           1           1           1           1
           6           3           1           1           1           1
           3           1           1           1           1           3
           1           1           1           1           3           1
           1           1           1           6           3           1
           1           1           1           3           1           1
           1           1           3           1           1           1
           1           3           1           1           1           1
           6           3           1           1           1           1
           3           1           1           1           1           6
           3           1           1           1           1           3
           1           1           1           1           3           1
           1           1           1           3           1           1
           1           1
Shell to atom map                          I   N=          98
           1           1           1           1           1           1
           2           2           2           2           2           2
           3           3           3           3           3           3
           4           4           4           4           4           4
           5           5           5           5           5           5
           6           6           6           6           6           7
           7           7           7           7           8           8
           8           8           8           9           9           9
           9           9           9          10          10          10
          10          10          11          11          11          11
          11          12          12          12          12          12
          13          13          13          13          13          13
          14          14          14          14          14          15
          15          15          15          15          15          16
          16          16          16          16          17          17
          17          17          17          18          18          18
          18          18
Primitive exponents                        R   N=         174
  4.56324000E+03  6.82024000E+02  1.54973000E+02  4.44553000E+01  1.30290000E+01
  1.82773000E+00  2.09642000E+01  4.80331000E+00  1.45933000E+00  4.83456000E-01
  1.45585000E-01  4.38000000E-02  6.26000000E-01  4.56324000E+03  6.82024000E+02
  1.54973000E+02  4.44553000E+01  1.30290000E+01  1.82773000E+00  2.09642000E+01
  4.80331000E+00  1.45933000E+00  4.83456000E-01  1.45585000E-01  4.38000000E-02
  6.26000000E-01  4.56324000E+03  6.82024000E+02  1.54973000E+02  4.44553000E+01
  1.30290000E+01  1.82773000E+00  2.09642000E+01  4.80331000E+00  1.45933000E+00
  4.83456000E-01  1.45585000E-01  4.38000000E-02  6.26000000E-01  4.56324000E+03
  6.82024000E+02  1.54973000E+02  4.44553000E+01  1.30290000E+01  1.82773000E+00
  2.09642000E+01  4.80331000E+00  1.45933000E+00  4.83456000E-01  1.45585000E-01
  4.38000000E-02  6.26000000E-01  8.58850000E+03  1.29723000E+03  2.99296000E+02
  8.73771000E+01  2.56789000E+01  3.74004000E+00  4.21175000E+01  9.62837000E+00
  2.85332000E+00  9.05661000E-01  2.55611000E-01  8.45000000E-02  1.29200000E+00
  3.38650000E+01  5.09479000E+00  1.15879000E+00  3.25840000E-01  1.02741000E-01
  3.60000000E-02  7.50000000E-01  3.38650000E+01  5.09479000E+00  1.15879000E+00
  3.25840000E-01  1.02741000E-01  3.60000000E-02  7.50000000E-01  3.38650000E+01
  5.09479000E+00  1.15879000E+00  3.25840000E-01  1.02741000E-01  3.60000000E-02
  7.50000000E-01  4.56324000E+03  6.82024000E+02  1.54973000E+02  4.44553000E+01
  1.30290000E+01  1.82773000E+00  2.09642000E+01  4.80331000E+00  1.45933000E+00
  4.83456000E-01  1.45585000E-01  4.38000000E-02  6.26000000E-01  3.38650000E+01
  5.09479000E+00  1.15879000E+00  3.25840000E-01  1.02741000E-01  3.60000000E-02
  7.50000000E-01  3.38650000E+01  5.09479000E+00  1.15879000E+00  3.25840000E-01
  1.02741000E-01  3.60000000E-02  7.50000000E-01  3.38650000E+01  5.09479000E+00
  1.15879000E+00  3.25840000E-01  1.02741000E-01  3.60000000E-02  7.50000000E-01
  8.58850000E+03  1.29723000E+03  2.99296000E+02  8.73771000E+01  2.56789000E+01
  3.74004000E+00  4.21175000E+01  9.62837000E+00  2.85332000E+00  9.05661000E-01
  2.55611000E-01  8.45000000E-02  1.29200000E+00  3.38650000E+01  5.09479000E+00
  1.15879000E+00  3.25840000E-01  1.02741000E-01  3.60000000E-02  7.50000000E-01
  4.56324000E+03  6.82024000E+02  1.54973000E+02  4.44553000E+01  1.30290000E+01
  1.82773000E+00  2.09642000E+01  4.80331000E+00  1.45933000E+00  4.83456000E-01
  1.45585000E-01  4.38000000E-02  6.26000000E-01  3.38650000E+01  5.09479000E+00
  1.15879000E+00  3.25840000E-01  1.02741000E-01  3.60000000E-02  7.50000000E-01
  3.38650000E+01  5.09479000E+00  1.15879000E+00  3.25840000E-01  1.02741000E-01
  3.60000000E-02  7.50000000E-01  3.38650000E+01  5.09479000E+00  1.15879000E+00
  3.25840000E-01  1.02741000E-01  3.60000000E-02  7.50000000E-01
Contraction coefficients                   R   N=         174
  1.96665025E-03  1.52306019E-02  7.61269097E-02  2.60801033E-01  6.16462078E-01
  2.21006028E-01  1.14660081E-01  9.19999648E-01 -3.03068213E-03  1.00000000E+00
  1.00000000E+00  1.00000000E+00  1.00000000E+00  1.96665025E-03  1.52306019E-02
  7.61269097E-02  2.60801033E-01  6.16462078E-01  2.21006028E-01  1.14660081E-01
  9.19999648E-01 -3.03068213E-03  1.00000000E+00  1.00000000E+00  1.00000000E+00
  1.00000000E+00  1.96665025E-03  1.52306019E-02  7.61269097E-02  2.60801033E-01
  6.16462078E-01  2.21006028E-01  1.14660081E-01  9.19999648E-01 -3.03068213E-03
  1.00000000E+00  1.00000000E+00  1.00000000E+00  1.00000000E+00  1.96665025E-03
  1.52306019E-02  7.61269097E-02  2.60801033E-01  6.16462078E-01  2.21006028E-01
  1.14660081E-01  9.19999648E-01 -3.03068213E-03  1.00000000E+00  1.00000000E+00
  1.00000000E+00  1.00000000E+00  1.89515008E-03  1.43859006E-02  7.07320031E-02
  2.40001011E-01  5.94797026E-01  2.80802012E-01  1.13889012E-01  9.20811101E-01
 -3.27447036E-03  1.00000000E+00  1.00000000E+00  1.00000000E+00  1.00000000E+00
  2.54938145E-02  1.90373109E-01  8.52161486E-01  1.00000000E+00  1.00000000E+00
  1.00000000E+00  1.00000000E+00  2.54938145E-02  1.90373109E-01  8.52161486E-01
  1.00000000E+00  1.00000000E+00  1.00000000E+00  1.00000000E+00  2.54938145E-02
  1.90373109E-01  8.52161486E-01  1.00000000E+00  1.00000000E+00  1.00000000E+00
  1.00000000E+00  1.96665025E-03  1.52306019E-02  7.61269097E-02  2.60801033E-01
  6.16462078E-01  2.21006028E-01  1.14660081E-01  9.19999648E-01 -3.03068213E-03
  1.00000000E+00  1.00000000E+00  1.00000000E+00  1.00000000E+00  2.54938145E-02
  1.90373109E-01  8.52161486E-01  1.00000000E+00  1.00000000E+00  1.00000000E+00
  1.00000000E+00  2.54938145E-02  1.90373109E-01  8.52161486E-01  1.00000000E+00
  1.00000000E+00  1.00000000E+00  1.00000000E+00  2.54938145E-02  1.90373109E-01
  8.52161486E-01  1.00000000E+00  1.00000000E+00  1.00000000E+00  1.00000000E+00
  1.89515008E-03  1.43859006E-02  7.07320031E-02  2.40001011E-01  5.94797026E-01
  2.80802012E-01  1.13889012E-01  9.20811101E-01 -3.27447036E-03  1.00000000E+00
  1.00000000E+00  1.00000000E+00  1.00000000E+00  2.54938145E-02  1.90373109E-01
  8.52161486E-01  1.00000000E+00  1.00000000E+00  1.00000000E+00  1.00000000E+00
  1.96665025E-03  1.52306019E-02  7.61269097E-02  2.60801033E-01  6.16462078E-01
  2.21006028E-01  1.14660081E-01  9.19999648E-01 -3.03068213E-03  1.00000000E+00
  1.00000000E+00  1.00000000E+00  1.00000000E+00  2.54938145E-02  1.90373109E-01
  8.52161486E-01  1.00000000E+00  1.00000000E+00  1.00000000E+00  1.00000000E+00
  2.54938145E-02  1.90373109E-01  8.52161486E-01  1.00000000E+00  1.00000000E+00
  1.00000000E+00  1.00000000E+00  2.54938145E-02  1.90373109E-01  8.52161486E-01
  1.00000000E+00  1.00000000E+00  1.00000000E+00  1.00000000E+00
P(S=P) Contraction coefficients            R   N=         174
  0.00000000E+00  0.00000000E+00  0.00000000E+00  0.00000000E+00  0.00000000E+00
  0.00000000E+00  4.02486927E-02  2.37593957E-01  8.15853851E-01  1.00000000E+00
  1.00000000E+00  1.00000000E+00  0.00000000E+00  0.00000000E+00  0.00000000E+00
  0.00000000E+00  0.00000000E+00  0.00000000E+00  0.00000000E+00  4.02486927E-02
  2.37593957E-01  8.15853851E-01  1.00000000E+00  1.00000000E+00  1.00000000E+00
  0.00000000E+00  0.00000000E+00  0.00000000E+00  0.00000000E+00  0.00000000E+00
  0.00000000E+00  0.00000000E+00  4.02486927E-02  2.37593957E-01  8.15853851E-01
  1.00000000E+00  1.00000000E+00  1.00000000E+00  0.00000000E+00  0.00000000E+00
  0.00000000E+00  0.00000000E+00  0.00000000E+00  0.00000000E+00  0.00000000E+00
  4.02486927E-02  2.37593957E-01  8.15853851E-01  1.00000000E+00  1.00000000E+00
  1.00000000E+00  0.00000000E+00  0.00000000E+00  0.00000000E+00  0.00000000E+00
  0.00000000E+00  0.00000000E+00  0.00000000E+00  3.65113974E-02  2.37152983E-01
  8.19701941E-01  1.00000000E+00  1.00000000E+00  1.00000000E+00  0.00000000E+00
  0.00000000E+00  0.00000000E+00  0.00000000E+00  0.00000000E+00  0.00000000E+00
  0.00000000E+00  0.00000000E+00  0.00000000E+00  0.00000000E+00  0.00000000E+00
  0.00000000E+00  0.00000000E+00  0.00000000E+00  0.00000000E+00  0.00000000E+00
  0.00000000E+00  0.00000000E+00  0.00000000E+00  0.00000000E+00  0.00000000E+00
  0.00000000E+00  0.00000000E+00  0.00000000E+00  0.00000000E+00  0.00000000E+00
  0.00000000E+00  0.00000000E+00  4.02486927E-02  2.37593957E-01  8.15853851E-01
  1.00000000E+00  1.00000000E+00  1.00000000E+00  0.00000000E+00  0.00000000E+00
  0.00000000E+00  0.00000000E+00  0.00000000E+00  0.00000000E+00  0.00000000E+00
  0.00000000E+00  0.00000000E+00  0.00000000E+00  0.00000000E+00  0.00000000E+00
  0.00000000E+00  0.00000000E+00  0.00000000E+00  0.00000000E+00  0.00000000E+00
  0.00000000E+00  0.00000000E+00  0.00000000E+00  0.00000000E+00  0.00000000E+00
  0.00000000E+00  0.00000000E+00  0.00000000E+00  0.00000000E+00  0.00000000E+00
  0.00000000E+00  3.65113974E-02  2.37152983E-01  8.19701941E-01  1.00000000E+00
  1.00000000E+00  1.00000000E+00  0.00000000E+00  0.00000000E+00  0.00000000E+00
  0.00000000E+00  0.00000000E+00  0.00000000E+00  0.00000000E+00  0.00000000E+00
  0.00000000E+00  0.00000000E+00  0.00000000E+00  0.00000000E+00  0.00000000E+00
  0.00000000E+00  4.02486927E-02  2.37593957E-01  8.15853851E-01  1.00000000E+00
  1.00000000E+00  1.00000000E+00  0.00000000E+00  0.00000000E+00  0.00000000E+00
  0.00000000E+00  0.00000000E+00  0.00000000E+00  0.00000000E+00  0.00000000E+00
  0.00000000E+00  0.00000000E+00  0.00000000E+00  0.00000000E+00  0.00000000E+00
  0.00000000E+00  0.00000000E+00  0.00000000E+00  0.00000000E+00  0.00000000E+00
  0.00000000E+00  0.00000000E+00  0.00000000E+00  0.00000000E+00
Coordinates of each shell                  R   N=         294
  1.80067782E+00 -2.71281362E+00 -1.26434810E+00  1.80067782E+00 -2.71281362E+00
 -1.26434810E+00  1.80067782E+00 -2.71281362E+00 -1.26434810E+00  1.80067782E+00
 -2.71281362E+00 -1.26434810E+00  1.80067782E+00 -2.71281362E+00 -1.26434810E+00
  1.80067782E+00 -2.71281362E+00 -1.26434810E+00  2.04772017E+00 -2.80575010E+00
  1.29175932E+00  2.04772017E+00 -2.80575010E+00  1.29175932E+00  2.04772017E+00
 -2.80575010E+00  1.29175932E+00  2.04772017E+00 -2.80575010E+00  1.29175932E+00
  2.04772017E+00 -2.80575010E+00  1.29175932E+00  2.04772017E+00 -2.80575010E+00
  1.29175932E+00  2.05734741E+00 -2.24574069E-01  2.13975060E+00  2.05734741E+00
 -2.24574069E-01  2.13975060E+00  2.05734741E+00 -2.24574069E-01  2.13975060E+00
  2.05734741E+00 -2.24574069E-01  2.13975060E+00  2.05734741E+00 -2.24574069E-01
  2.13975060E+00  2.05734741E+00 -2.24574069E-01  2.13975060E+00  1.81431419E+00
  1.25055262E+00  3.41983554E-02  1.81431419E+00  1.25055262E+00  3.41983554E-02
  1.81431419E+00  1.25055262E+00  3.41983554E-02  1.81431419E+00  1.25055262E+00
  3.41983554E-02  1.81431419E+00  1.25055262E+00  3.41983554E-02  1.81431419E+00
  1.25055262E+00  3.41983554E-02  1.65047659E+00 -2.59288420E-01 -2.05993711E+00
  1.65047659E+00 -2.59288420E-01 -2.05993711E+00  1.65047659E+00 -2.59288420E-01
 -2.05993711E+00  1.65047659E+00 -2.59288420E-01 -2.05993711E+00  1.65047659E+00
 -2.59288420E-01 -2.05993711E+00  1.65047659E+00 -2.59288420E-01 -2.05993711E+00
  1.70344613E+00 -4.12606399E+00 -2.72345437E+00  1.70344613E+00 -4.12606399E+00
 -2.72345437E+00  1.70344613E+00 -4.12606399E+00 -2.72345437E+00  1.70344613E+00
 -4.12606399E+00 -2.72345437E+00  1.70344613E+00 -4.12606399E+00 -2.72345437E+00
  2.21171825E+00 -4.48697907E+00  2.42999160E+00  2.21171825E+00 -4.48697907E+00
  2.42999160E+00  2.21171825E+00 -4.48697907E+00  2.42999160E+00  2.21171825E+00
 -4.48697907E+00  2.42999160E+00  2.21171825E+00 -4.48697907E+00  2.42999160E+00
  2.24670125E+00  4.49514512E-01  4.05387229E+00  2.24670125E+00  4.49514512E-01
  4.05387229E+00  2.24670125E+00  4.49514512E-01  4.05387229E+00  2.24670125E+00
  4.49514512E-01  4.05387229E+00  2.24670125E+00  4.49514512E-01  4.05387229E+00
 -4.84169927E+00 -6.16050547E-01 -8.83411867E-01 -4.84169927E+00 -6.16050547E-01
 -8.83411867E-01 -4.84169927E+00 -6.16050547E-01 -8.83411867E-01 -4.84169927E+00
 -6.16050547E-01 -8.83411867E-01 -4.84169927E+00 -6.16050547E-01 -8.83411867E-01
 -4.84169927E+00 -6.16050547E-01 -8.83411867E-01 -3.65363777E+00  1.89050332E-02
 -2.45451307E+00 -3.65363777E+00  1.89050332E-02 -2.45451307E+00 -3.65363777E+00
  1.89050332E-02 -2.45451307E+00 -3.65363777E+00  1.89050332E-02 -2.45451307E+00
 -3.65363777E+00  1.89050332E-02 -2.45451307E+00 -4.66853465E+00 -2.67144209E+00
 -7.09412877E-01 -4.66853465E+00 -2.67144209E+00 -7.09412877E-01 -4.66853465E+00
 -2.67144209E+00 -7.09412877E-01 -4.66853465E+00 -2.67144209E+00 -7.09412877E-01
 -4.66853465E+00 -2.67144209E+00 -7.09412877E-01 -6.80272776E+00 -1.56193696E-01
 -1.31060744E+00 -6.80272776E+00 -1.56193696E-01 -1.31060744E+00 -6.80272776E+00
 -1.56193696E-01 -1.31060744E+00 -6.80272776E+00 -1.56193696E-01 -1.31060744E+00
 -6.80272776E+00 -1.56193696E-01 -1.31060744E+00 -4.22450221E+00  6.39347752E-01
  1.41137057E+00 -4.22450221E+00  6.39347752E-01  1.41137057E+00 -4.22450221E+00
  6.39347752E-01  1.41137057E+00 -4.22450221E+00  6.39347752E-01  1.41137057E+00
 -4.22450221E+00  6.39347752E-01  1.41137057E+00 -4.22450221E+00  6.39347752E-01
  1.41137057E+00 -2.49122089E+00  2.50802918E-01  1.80515877E+00 -2.49122089E+00
  2.50802918E-01  1.80515877E+00 -2.49122089E+00  2.50802918E-01  1.80515877E+00
 -2.49122089E+00  2.50802918E-01  1.80515877E+00 -2.49122089E+00  2.50802918E-01
  1.80515877E+00  1.65613456E+00  4.02104944E+00 -3.90020149E-01  1.65613456E+00
  4.02104944E+00 -3.90020149E-01  1.65613456E+00  4.02104944E+00 -3.90020149E-01
  1.65613456E+00  4.02104944E+00 -3.90020149E-01  1.65613456E+00  4.02104944E+00
 -3.90020149E-01  1.65613456E+00  4.02104944E+00 -3.90020149E-01  3.13934942E+00
  4.65919472E+00 -1.67696111E+00  3.13934942E+00  4.65919472E+00 -1.67696111E+00
  3.13934942E+00  4.65919472E+00 -1.67696111E+00  3.13934942E+00  4.65919472E+00
 -1.67696111E+00  3.13934942E+00  4.65919472E+00 -1.67696111E+00 -1.71985420E-01
  4.53971121E+00 -1.19822871E+00 -1.71985420E-01  4.53971121E+00 -1.19822871E+00
 -1.71985420E-01  4.53971121E+00 -1.19822871E+00 -1.71985420E-01  4.53971121E+00
 -1.19822871E+00 -1.71985420E-01  4.53971121E+00 -1.19822871E+00  1.87212707E+00
  5.00759343E+00  1.40511822E+00  1.87212707E+00  5.00759343E+00  1.40511822E+00
  1.87212707E+00  5.00759343E+00  1.40511822E+00  1.87212707E+00  5.00759343E+00
  1.40511822E+00  1.87212707E+00  5.00759343E+00  1.40511822E+00
Constraint Structure                       R   N=          54
  1.26617554E+00 -2.85635581E+00 -1.30853848E+00  1.35497048E+00 -3.05097737E+00
  1.25513463E+00  1.90253625E+00 -5.57942327E-01  2.18067269E+00  2.09781273E+00
  9.49873350E-01  1.00832270E-01  1.71058097E+00 -4.25302704E-01 -2.04226210E+00
  9.21629440E-01 -4.18540437E+00 -2.80858701E+00  1.07342121E+00 -4.74485013E+00
  2.35001768E+00  2.13820810E+00  2.28675079E-02  4.11923225E+00 -4.91181500E+00
  1.59147888E-01 -1.02614073E+00 -3.71267539E+00  1.04024012E+00 -2.46479340E+00
 -4.75843022E+00 -1.89810692E+00 -1.20118309E+00 -6.86620386E+00  7.04044458E-01
 -1.37590598E+00 -4.29505355E+00  1.00107475E+00  1.44883358E+00 -2.55206855E+00
  5.85501104E-01  1.75559343E+00  2.64382737E+00  3.78213224E+00 -2.85580713E-01
  4.31546671E+00  4.00008018E+00 -1.40210781E+00  1.08170501E+00  4.64628835E+00
 -1.23506484E+00  2.91368403E+00  4.66789557E+00  1.51194895E+00
Num ILSW                                   I              100
ILSW                                       I   N=         100
           0           0           0           0           2           0
           0           0           0           0         419          -1
      199974           0           0           0           2           0
           0           0           1           0           1           0
           1           0           0           0           0           0
           0           0      100000           0          -1           0
           0           0           0           0           0           0
           0           0           0           1           1           0
           0           0           1           0           0           0
           0           0         141          41           0           0
           0           0          60           0           0           0
           0           0           0           0           0           0
           0           0           0           0           0           0
           0           0           0           0           0           0
           0           0           0           0           0           0
           0           0           0           0           0           0
           0           0           0           0
Num RLSW                                   I               41
RLSW                                       R   N=          41
  4.70000000E-01  4.70000000E-01  7.30000000E-01  7.30000000E-01  5.30000000E-01
  0.00000000E+00  0.00000000E+00  1.00000000E+00  0.00000000E+00  0.00000000E+00
  0.00000000E+00  0.00000000E+00  1.00000000E+00  0.00000000E+00  0.00000000E+00
  0.00000000E+00  0.00000000E+00  1.00000000E+00  0.00000000E+00  0.00000000E+00
  0.00000000E+00  0.00000000E+00  1.00000000E+00  0.00000000E+00  0.00000000E+00
  0.00000000E+00  0.00000000E+00  1.00000000E+00  0.00000000E+00  0.00000000E+00
  0.00000000E+00  0.00000000E+00  1.00000000E+00  0.00000000E+00  0.00000000E+00
  0.00000000E+00  0.00000000E+00  0.00000000E+00  2.70000000E-01  2.70000000E-01
  0.00000000E+00
MxBond                                     I                4
NBond                                      I   N=          18
           3           3           4           3           2           1
           1           1           4           1           1           1
           2           2           4           1           1           1
IBond                                      I   N=          72
           2           5           6           0           1           3
           7           0           2           4           8          14
           3           5          15           0           1           4
           0           0           1           0           0           0
           2           0           0           0           3           0
           0           0          10          11          12          13
           9           0           0           0           9           0
           0           0           9           0           0           0
           9          14           0           0           3          13
           0           0           4          16          17          18
          15           0           0           0          15           0
           0           0          15           0           0           0
RBond                                      R   N=          72
  2.00000000E+00  1.00000000E+00  1.00000000E+00  0.00000000E+00  2.00000000E+00
  1.50000000E+00  1.00000000E+00  0.00000000E+00  1.50000000E+00  2.00000000E+00
  1.00000000E+00  1.00000000E-01  2.00000000E+00  1.00000000E+00  1.00000000E+00
  0.00000000E+00  1.00000000E+00  1.00000000E+00  0.00000000E+00  0.00000000E+00
  1.00000000E+00  0.00000000E+00  0.00000000E+00  0.00000000E+00  1.00000000E+00
  0.00000000E+00  0.00000000E+00  0.00000000E+00  1.00000000E+00  0.00000000E+00
  0.00000000E+00  0.00000000E+00  1.00000000E+00  1.00000000E+00  1.00000000E+00
  1.00000000E+00  1.00000000E+00  0.00000000E+00  0.00000000E+00  0.00000000E+00
  1.00000000E+00  0.00000000E+00  0.00000000E+00  0.00000000E+00  1.00000000E+00
  0.00000000E+00  0.00000000E+00  0.00000000E+00  1.00000000E+00  1.00000000E+00
  0.00000000E+00  0.00000000E+00  1.00000000E-01  1.00000000E+00  0.00000000E+00
  0.00000000E+00  1.00000000E+00  1.00000000E+00  1.00000000E+00  1.00000000E+00
  1.00000000E+00  0.00000000E+00  0.00000000E+00  0.00000000E+00  1.00000000E+00
  0.00000000E+00  0.00000000E+00  0.00000000E+00  1.00000000E+00  0.00000000E+00
  0.00000000E+00  0.00000000E+00
Virial Ratio                               R      2.002928377802097E+00
SCF Energy                                 R     -3.843924688638268E+02
MP2 Energy                                 R     -3.848157635150154E+02
Total Energy                               R     -3.848157635150154E+02
Post-SCF wavefunction norm                 R      1.809012623251580E+00