Title Card Required                                                     
Freq      RB2PLYPD3-FC                                                6-311++G(d,p)       
Number of atoms                            I               18
Info1-9                                    I   N=           9
          46          46           0           0           0         100
           6           2           1
Charge                                     I                0
Multiplicity                               I                1
Number of electrons                        I               62
Number of alpha electrons                  I               31
Number of beta electrons                   I               31
Number of basis functions                  I              246
Number of independent functions            I              246
Number of point charges in /Mol/           I                0
Number of translation vectors              I                0
Atomic numbers                             I   N=          18
           6           6           6           6           8           1
           1           1           6           1           1           1
           8           1           6           1           1           1
Nuclear charges                            R   N=          18
  6.00000000E+00  6.00000000E+00  6.00000000E+00  6.00000000E+00  8.00000000E+00
  1.00000000E+00  1.00000000E+00  1.00000000E+00  6.00000000E+00  1.00000000E+00
  1.00000000E+00  1.00000000E+00  8.00000000E+00  1.00000000E+00  6.00000000E+00
  1.00000000E+00  1.00000000E+00  1.00000000E+00
Current cartesian coordinates              R   N=          54
 -2.20796609E+00  8.24956323E-01  2.22068581E-01 -1.84203060E+00 -8.64036630E-01
  2.13512103E+00 -1.02887182E+00 -3.18528177E+00  9.82225683E-01 -9.55629813E-01
 -2.73547000E+00 -1.55076570E+00 -1.66408121E+00 -3.02770921E-01 -2.04389475E+00
 -2.11900511E+00 -5.02191904E-01  4.12074442E+00 -5.81816881E-01 -4.94399684E+00
  1.90903787E+00 -4.71979429E-01 -3.86759401E+00 -3.16965314E+00  4.32911994E+00
  1.98412665E+00 -1.88269128E-01  3.29170911E+00  2.17515743E+00 -1.96971231E+00
  3.26273883E+00  2.93604135E+00  1.31026208E+00  6.15405749E+00  2.91682250E+00
 -3.87810044E-01  4.82337675E+00 -5.84481800E-01  4.13097863E-01  3.22501722E+00
 -1.44226991E+00  5.47194047E-01 -3.01919421E+00  3.51064698E+00  1.26661263E-01
 -1.55714230E+00  4.69837833E+00 -7.20861738E-01 -4.74212015E+00  3.72770565E+00
 -9.91007258E-01 -3.38838760E+00  4.19031988E+00  2.03593084E+00
Force Field                                I                0
Int Atom Types                             I   N=          18
           0           0           0           0           0           0
           0           0           0           0           0           0
           0           0           0           0           0           0
MM charges                                 R   N=          18
  0.00000000E+00  0.00000000E+00  0.00000000E+00  0.00000000E+00  0.00000000E+00
  0.00000000E+00  0.00000000E+00  0.00000000E+00  0.00000000E+00  0.00000000E+00
  0.00000000E+00  0.00000000E+00  0.00000000E+00  0.00000000E+00  0.00000000E+00
  0.00000000E+00  0.00000000E+00  0.00000000E+00
Integer atomic weights                     I   N=          18
          12          12          12          12          16           1
           1           1          12           1           1           1
          16           1          12           1           1           1
Real atomic weights                        R   N=          18
  1.20000000E+01  1.20000000E+01  1.20000000E+01  1.20000000E+01  1.59949146E+01
  1.00782504E+00  1.00782504E+00  1.00782504E+00  1.20000000E+01  1.00782504E+00
  1.00782504E+00  1.00782504E+00  1.59949146E+01  1.00782504E+00  1.20000000E+01
  1.00782504E+00  1.00782504E+00  1.00782504E+00
Atom fragment info                         I   N=          18
           0           0           0           0           0           0
           0           0           0           0           0           0
           0           0           0           0           0           0
Atom residue num                           I   N=          18
           0           0           0           0           0           0
           0           0           0           0           0           0
           0           0           0           0           0           0
Nuclear spins                              I   N=          18
           0           0           0           0           0           1
           1           1           0           1           1           1
           0           1           0           1           1           1
Nuclear ZEff                               R   N=          18
 -3.60000000E+00 -3.60000000E+00 -3.60000000E+00 -3.60000000E+00 -5.60000000E+00
 -1.00000000E+00 -1.00000000E+00 -1.00000000E+00 -3.60000000E+00 -1.00000000E+00
 -1.00000000E+00 -1.00000000E+00 -5.60000000E+00 -1.00000000E+00 -3.60000000E+00
 -1.00000000E+00 -1.00000000E+00 -1.00000000E+00
Nuclear ZNuc                               R   N=          18
  6.00000000E+00  6.00000000E+00  6.00000000E+00  6.00000000E+00  8.00000000E+00
  1.00000000E+00  1.00000000E+00  1.00000000E+00  6.00000000E+00  1.00000000E+00
  1.00000000E+00  1.00000000E+00  8.00000000E+00  1.00000000E+00  6.00000000E+00
  1.00000000E+00  1.00000000E+00  1.00000000E+00
Nuclear QMom                               R   N=          18
  0.00000000E+00  0.00000000E+00  0.00000000E+00  0.00000000E+00  0.00000000E+00
  0.00000000E+00  0.00000000E+00  0.00000000E+00  0.00000000E+00  0.00000000E+00
  0.00000000E+00  0.00000000E+00  0.00000000E+00  0.00000000E+00  0.00000000E+00
  0.00000000E+00  0.00000000E+00  0.00000000E+00
Nuclear GFac                               R   N=          18
  0.00000000E+00  0.00000000E+00  0.00000000E+00  0.00000000E+00  0.00000000E+00
  2.79284600E+00  2.79284600E+00  2.79284600E+00  0.00000000E+00  2.79284600E+00
  2.79284600E+00  2.79284600E+00  0.00000000E+00  2.79284600E+00  0.00000000E+00
  2.79284600E+00  2.79284600E+00  2.79284600E+00
MicOpt                                     I   N=          18
          -1          -1          -1          -1          -1          -1
          -1          -1          -1          -1          -1          -1
          -1          -1          -1          -1          -1          -1
Number of contracted shells                I               98
Number of primitive shells                 I              174
Pure/Cartesian d shells                    I                0
Pure/Cartesian f shells                    I                0
Highest angular momentum                   I                2
Largest degree of contraction              I                6
Shell types                                I   N=          98
           0          -1          -1          -1          -1          -2
           0          -1          -1          -1          -1          -2
           0          -1          -1          -1          -1          -2
           0          -1          -1          -1          -1          -2
           0          -1          -1          -1          -1          -2
           0           0           0           0           1           0
           0           0           0           1           0           0
           0           0           1           0          -1          -1
          -1          -1          -2           0           0           0
           0           1           0           0           0           0
           1           0           0           0           0           1
           0          -1          -1          -1          -1          -2
           0           0           0           0           1           0
          -1          -1          -1          -1          -2           0
           0           0           0           1           0           0
           0           0           1           0           0           0
           0           1
Number of primitives per shell             I   N=          98
           6           3           1           1           1           1
           6           3           1           1           1           1
           6           3           1           1           1           1
           6           3           1           1           1           1
           6           3           1           1           1           1
           3           1           1           1           1           3
           1           1           1           1           3           1
           1           1           1           6           3           1
           1           1           1           3           1           1
           1           1           3           1           1           1
           1           3           1           1           1           1
           6           3           1           1           1           1
           3           1           1           1           1           6
           3           1           1           1           1           3
           1           1           1           1           3           1
           1           1           1           3           1           1
           1           1
Shell to atom map                          I   N=          98
           1           1           1           1           1           1
           2           2           2           2           2           2
           3           3           3           3           3           3
           4           4           4           4           4           4
           5           5           5           5           5           5
           6           6           6           6           6           7
           7           7           7           7           8           8
           8           8           8           9           9           9
           9           9           9          10          10          10
          10          10          11          11          11          11
          11          12          12          12          12          12
          13          13          13          13          13          13
          14          14          14          14          14          15
          15          15          15          15          15          16
          16          16          16          16          17          17
          17          17          17          18          18          18
          18          18
Primitive exponents                        R   N=         174
  4.56324000E+03  6.82024000E+02  1.54973000E+02  4.44553000E+01  1.30290000E+01
  1.82773000E+00  2.09642000E+01  4.80331000E+00  1.45933000E+00  4.83456000E-01
  1.45585000E-01  4.38000000E-02  6.26000000E-01  4.56324000E+03  6.82024000E+02
  1.54973000E+02  4.44553000E+01  1.30290000E+01  1.82773000E+00  2.09642000E+01
  4.80331000E+00  1.45933000E+00  4.83456000E-01  1.45585000E-01  4.38000000E-02
  6.26000000E-01  4.56324000E+03  6.82024000E+02  1.54973000E+02  4.44553000E+01
  1.30290000E+01  1.82773000E+00  2.09642000E+01  4.80331000E+00  1.45933000E+00
  4.83456000E-01  1.45585000E-01  4.38000000E-02  6.26000000E-01  4.56324000E+03
  6.82024000E+02  1.54973000E+02  4.44553000E+01  1.30290000E+01  1.82773000E+00
  2.09642000E+01  4.80331000E+00  1.45933000E+00  4.83456000E-01  1.45585000E-01
  4.38000000E-02  6.26000000E-01  8.58850000E+03  1.29723000E+03  2.99296000E+02
  8.73771000E+01  2.56789000E+01  3.74004000E+00  4.21175000E+01  9.62837000E+00
  2.85332000E+00  9.05661000E-01  2.55611000E-01  8.45000000E-02  1.29200000E+00
  3.38650000E+01  5.09479000E+00  1.15879000E+00  3.25840000E-01  1.02741000E-01
  3.60000000E-02  7.50000000E-01  3.38650000E+01  5.09479000E+00  1.15879000E+00
  3.25840000E-01  1.02741000E-01  3.60000000E-02  7.50000000E-01  3.38650000E+01
  5.09479000E+00  1.15879000E+00  3.25840000E-01  1.02741000E-01  3.60000000E-02
  7.50000000E-01  4.56324000E+03  6.82024000E+02  1.54973000E+02  4.44553000E+01
  1.30290000E+01  1.82773000E+00  2.09642000E+01  4.80331000E+00  1.45933000E+00
  4.83456000E-01  1.45585000E-01  4.38000000E-02  6.26000000E-01  3.38650000E+01
  5.09479000E+00  1.15879000E+00  3.25840000E-01  1.02741000E-01  3.60000000E-02
  7.50000000E-01  3.38650000E+01  5.09479000E+00  1.15879000E+00  3.25840000E-01
  1.02741000E-01  3.60000000E-02  7.50000000E-01  3.38650000E+01  5.09479000E+00
  1.15879000E+00  3.25840000E-01  1.02741000E-01  3.60000000E-02  7.50000000E-01
  8.58850000E+03  1.29723000E+03  2.99296000E+02  8.73771000E+01  2.56789000E+01
  3.74004000E+00  4.21175000E+01  9.62837000E+00  2.85332000E+00  9.05661000E-01
  2.55611000E-01  8.45000000E-02  1.29200000E+00  3.38650000E+01  5.09479000E+00
  1.15879000E+00  3.25840000E-01  1.02741000E-01  3.60000000E-02  7.50000000E-01
  4.56324000E+03  6.82024000E+02  1.54973000E+02  4.44553000E+01  1.30290000E+01
  1.82773000E+00  2.09642000E+01  4.80331000E+00  1.45933000E+00  4.83456000E-01
  1.45585000E-01  4.38000000E-02  6.26000000E-01  3.38650000E+01  5.09479000E+00
  1.15879000E+00  3.25840000E-01  1.02741000E-01  3.60000000E-02  7.50000000E-01
  3.38650000E+01  5.09479000E+00  1.15879000E+00  3.25840000E-01  1.02741000E-01
  3.60000000E-02  7.50000000E-01  3.38650000E+01  5.09479000E+00  1.15879000E+00
  3.25840000E-01  1.02741000E-01  3.60000000E-02  7.50000000E-01
Contraction coefficients                   R   N=         174
  1.96665025E-03  1.52306019E-02  7.61269097E-02  2.60801033E-01  6.16462078E-01
  2.21006028E-01  1.14660081E-01  9.19999648E-01 -3.03068213E-03  1.00000000E+00
  1.00000000E+00  1.00000000E+00  1.00000000E+00  1.96665025E-03  1.52306019E-02
  7.61269097E-02  2.60801033E-01  6.16462078E-01  2.21006028E-01  1.14660081E-01
  9.19999648E-01 -3.03068213E-03  1.00000000E+00  1.00000000E+00  1.00000000E+00
  1.00000000E+00  1.96665025E-03  1.52306019E-02  7.61269097E-02  2.60801033E-01
  6.16462078E-01  2.21006028E-01  1.14660081E-01  9.19999648E-01 -3.03068213E-03
  1.00000000E+00  1.00000000E+00  1.00000000E+00  1.00000000E+00  1.96665025E-03
  1.52306019E-02  7.61269097E-02  2.60801033E-01  6.16462078E-01  2.21006028E-01
  1.14660081E-01  9.19999648E-01 -3.03068213E-03  1.00000000E+00  1.00000000E+00
  1.00000000E+00  1.00000000E+00  1.89515008E-03  1.43859006E-02  7.07320031E-02
  2.40001011E-01  5.94797026E-01  2.80802012E-01  1.13889012E-01  9.20811101E-01
 -3.27447036E-03  1.00000000E+00  1.00000000E+00  1.00000000E+00  1.00000000E+00
  2.54938145E-02  1.90373109E-01  8.52161486E-01  1.00000000E+00  1.00000000E+00
  1.00000000E+00  1.00000000E+00  2.54938145E-02  1.90373109E-01  8.52161486E-01
  1.00000000E+00  1.00000000E+00  1.00000000E+00  1.00000000E+00  2.54938145E-02
  1.90373109E-01  8.52161486E-01  1.00000000E+00  1.00000000E+00  1.00000000E+00
  1.00000000E+00  1.96665025E-03  1.52306019E-02  7.61269097E-02  2.60801033E-01
  6.16462078E-01  2.21006028E-01  1.14660081E-01  9.19999648E-01 -3.03068213E-03
  1.00000000E+00  1.00000000E+00  1.00000000E+00  1.00000000E+00  2.54938145E-02
  1.90373109E-01  8.52161486E-01  1.00000000E+00  1.00000000E+00  1.00000000E+00
  1.00000000E+00  2.54938145E-02  1.90373109E-01  8.52161486E-01  1.00000000E+00
  1.00000000E+00  1.00000000E+00  1.00000000E+00  2.54938145E-02  1.90373109E-01
  8.52161486E-01  1.00000000E+00  1.00000000E+00  1.00000000E+00  1.00000000E+00
  1.89515008E-03  1.43859006E-02  7.07320031E-02  2.40001011E-01  5.94797026E-01
  2.80802012E-01  1.13889012E-01  9.20811101E-01 -3.27447036E-03  1.00000000E+00
  1.00000000E+00  1.00000000E+00  1.00000000E+00  2.54938145E-02  1.90373109E-01
  8.52161486E-01  1.00000000E+00  1.00000000E+00  1.00000000E+00  1.00000000E+00
  1.96665025E-03  1.52306019E-02  7.61269097E-02  2.60801033E-01  6.16462078E-01
  2.21006028E-01  1.14660081E-01  9.19999648E-01 -3.03068213E-03  1.00000000E+00
  1.00000000E+00  1.00000000E+00  1.00000000E+00  2.54938145E-02  1.90373109E-01
  8.52161486E-01  1.00000000E+00  1.00000000E+00  1.00000000E+00  1.00000000E+00
  2.54938145E-02  1.90373109E-01  8.52161486E-01  1.00000000E+00  1.00000000E+00
  1.00000000E+00  1.00000000E+00  2.54938145E-02  1.90373109E-01  8.52161486E-01
  1.00000000E+00  1.00000000E+00  1.00000000E+00  1.00000000E+00
P(S=P) Contraction coefficients            R   N=         174
  0.00000000E+00  0.00000000E+00  0.00000000E+00  0.00000000E+00  0.00000000E+00
  0.00000000E+00  4.02486927E-02  2.37593957E-01  8.15853851E-01  1.00000000E+00
  1.00000000E+00  1.00000000E+00  0.00000000E+00  0.00000000E+00  0.00000000E+00
  0.00000000E+00  0.00000000E+00  0.00000000E+00  0.00000000E+00  4.02486927E-02
  2.37593957E-01  8.15853851E-01  1.00000000E+00  1.00000000E+00  1.00000000E+00
  0.00000000E+00  0.00000000E+00  0.00000000E+00  0.00000000E+00  0.00000000E+00
  0.00000000E+00  0.00000000E+00  4.02486927E-02  2.37593957E-01  8.15853851E-01
  1.00000000E+00  1.00000000E+00  1.00000000E+00  0.00000000E+00  0.00000000E+00
  0.00000000E+00  0.00000000E+00  0.00000000E+00  0.00000000E+00  0.00000000E+00
  4.02486927E-02  2.37593957E-01  8.15853851E-01  1.00000000E+00  1.00000000E+00
  1.00000000E+00  0.00000000E+00  0.00000000E+00  0.00000000E+00  0.00000000E+00
  0.00000000E+00  0.00000000E+00  0.00000000E+00  3.65113974E-02  2.37152983E-01
  8.19701941E-01  1.00000000E+00  1.00000000E+00  1.00000000E+00  0.00000000E+00
  0.00000000E+00  0.00000000E+00  0.00000000E+00  0.00000000E+00  0.00000000E+00
  0.00000000E+00  0.00000000E+00  0.00000000E+00  0.00000000E+00  0.00000000E+00
  0.00000000E+00  0.00000000E+00  0.00000000E+00  0.00000000E+00  0.00000000E+00
  0.00000000E+00  0.00000000E+00  0.00000000E+00  0.00000000E+00  0.00000000E+00
  0.00000000E+00  0.00000000E+00  0.00000000E+00  0.00000000E+00  0.00000000E+00
  0.00000000E+00  0.00000000E+00  4.02486927E-02  2.37593957E-01  8.15853851E-01
  1.00000000E+00  1.00000000E+00  1.00000000E+00  0.00000000E+00  0.00000000E+00
  0.00000000E+00  0.00000000E+00  0.00000000E+00  0.00000000E+00  0.00000000E+00
  0.00000000E+00  0.00000000E+00  0.00000000E+00  0.00000000E+00  0.00000000E+00
  0.00000000E+00  0.00000000E+00  0.00000000E+00  0.00000000E+00  0.00000000E+00
  0.00000000E+00  0.00000000E+00  0.00000000E+00  0.00000000E+00  0.00000000E+00
  0.00000000E+00  0.00000000E+00  0.00000000E+00  0.00000000E+00  0.00000000E+00
  0.00000000E+00  3.65113974E-02  2.37152983E-01  8.19701941E-01  1.00000000E+00
  1.00000000E+00  1.00000000E+00  0.00000000E+00  0.00000000E+00  0.00000000E+00
  0.00000000E+00  0.00000000E+00  0.00000000E+00  0.00000000E+00  0.00000000E+00
  0.00000000E+00  0.00000000E+00  0.00000000E+00  0.00000000E+00  0.00000000E+00
  0.00000000E+00  4.02486927E-02  2.37593957E-01  8.15853851E-01  1.00000000E+00
  1.00000000E+00  1.00000000E+00  0.00000000E+00  0.00000000E+00  0.00000000E+00
  0.00000000E+00  0.00000000E+00  0.00000000E+00  0.00000000E+00  0.00000000E+00
  0.00000000E+00  0.00000000E+00  0.00000000E+00  0.00000000E+00  0.00000000E+00
  0.00000000E+00  0.00000000E+00  0.00000000E+00  0.00000000E+00  0.00000000E+00
  0.00000000E+00  0.00000000E+00  0.00000000E+00  0.00000000E+00
Coordinates of each shell                  R   N=         294
 -2.20796609E+00  8.24956323E-01  2.22068581E-01 -2.20796609E+00  8.24956323E-01
  2.22068581E-01 -2.20796609E+00  8.24956323E-01  2.22068581E-01 -2.20796609E+00
  8.24956323E-01  2.22068581E-01 -2.20796609E+00  8.24956323E-01  2.22068581E-01
 -2.20796609E+00  8.24956323E-01  2.22068581E-01 -1.84203060E+00 -8.64036630E-01
  2.13512103E+00 -1.84203060E+00 -8.64036630E-01  2.13512103E+00 -1.84203060E+00
 -8.64036630E-01  2.13512103E+00 -1.84203060E+00 -8.64036630E-01  2.13512103E+00
 -1.84203060E+00 -8.64036630E-01  2.13512103E+00 -1.84203060E+00 -8.64036630E-01
  2.13512103E+00 -1.02887182E+00 -3.18528177E+00  9.82225683E-01 -1.02887182E+00
 -3.18528177E+00  9.82225683E-01 -1.02887182E+00 -3.18528177E+00  9.82225683E-01
 -1.02887182E+00 -3.18528177E+00  9.82225683E-01 -1.02887182E+00 -3.18528177E+00
  9.82225683E-01 -1.02887182E+00 -3.18528177E+00  9.82225683E-01 -9.55629813E-01
 -2.73547000E+00 -1.55076570E+00 -9.55629813E-01 -2.73547000E+00 -1.55076570E+00
 -9.55629813E-01 -2.73547000E+00 -1.55076570E+00 -9.55629813E-01 -2.73547000E+00
 -1.55076570E+00 -9.55629813E-01 -2.73547000E+00 -1.55076570E+00 -9.55629813E-01
 -2.73547000E+00 -1.55076570E+00 -1.66408121E+00 -3.02770921E-01 -2.04389475E+00
 -1.66408121E+00 -3.02770921E-01 -2.04389475E+00 -1.66408121E+00 -3.02770921E-01
 -2.04389475E+00 -1.66408121E+00 -3.02770921E-01 -2.04389475E+00 -1.66408121E+00
 -3.02770921E-01 -2.04389475E+00 -1.66408121E+00 -3.02770921E-01 -2.04389475E+00
 -2.11900511E+00 -5.02191904E-01  4.12074442E+00 -2.11900511E+00 -5.02191904E-01
  4.12074442E+00 -2.11900511E+00 -5.02191904E-01  4.12074442E+00 -2.11900511E+00
 -5.02191904E-01  4.12074442E+00 -2.11900511E+00 -5.02191904E-01  4.12074442E+00
 -5.81816881E-01 -4.94399684E+00  1.90903787E+00 -5.81816881E-01 -4.94399684E+00
  1.90903787E+00 -5.81816881E-01 -4.94399684E+00  1.90903787E+00 -5.81816881E-01
 -4.94399684E+00  1.90903787E+00 -5.81816881E-01 -4.94399684E+00  1.90903787E+00
 -4.71979429E-01 -3.86759401E+00 -3.16965314E+00 -4.71979429E-01 -3.86759401E+00
 -3.16965314E+00 -4.71979429E-01 -3.86759401E+00 -3.16965314E+00 -4.71979429E-01
 -3.86759401E+00 -3.16965314E+00 -4.71979429E-01 -3.86759401E+00 -3.16965314E+00
  4.32911994E+00  1.98412665E+00 -1.88269128E-01  4.32911994E+00  1.98412665E+00
 -1.88269128E-01  4.32911994E+00  1.98412665E+00 -1.88269128E-01  4.32911994E+00
  1.98412665E+00 -1.88269128E-01  4.32911994E+00  1.98412665E+00 -1.88269128E-01
  4.32911994E+00  1.98412665E+00 -1.88269128E-01  3.29170911E+00  2.17515743E+00
 -1.96971231E+00  3.29170911E+00  2.17515743E+00 -1.96971231E+00  3.29170911E+00
  2.17515743E+00 -1.96971231E+00  3.29170911E+00  2.17515743E+00 -1.96971231E+00
  3.29170911E+00  2.17515743E+00 -1.96971231E+00  3.26273883E+00  2.93604135E+00
  1.31026208E+00  3.26273883E+00  2.93604135E+00  1.31026208E+00  3.26273883E+00
  2.93604135E+00  1.31026208E+00  3.26273883E+00  2.93604135E+00  1.31026208E+00
  3.26273883E+00  2.93604135E+00  1.31026208E+00  6.15405749E+00  2.91682250E+00
 -3.87810044E-01  6.15405749E+00  2.91682250E+00 -3.87810044E-01  6.15405749E+00
  2.91682250E+00 -3.87810044E-01  6.15405749E+00  2.91682250E+00 -3.87810044E-01
  6.15405749E+00  2.91682250E+00 -3.87810044E-01  4.82337675E+00 -5.84481800E-01
  4.13097863E-01  4.82337675E+00 -5.84481800E-01  4.13097863E-01  4.82337675E+00
 -5.84481800E-01  4.13097863E-01  4.82337675E+00 -5.84481800E-01  4.13097863E-01
  4.82337675E+00 -5.84481800E-01  4.13097863E-01  4.82337675E+00 -5.84481800E-01
  4.13097863E-01  3.22501722E+00 -1.44226991E+00  5.47194047E-01  3.22501722E+00
 -1.44226991E+00  5.47194047E-01  3.22501722E+00 -1.44226991E+00  5.47194047E-01
  3.22501722E+00 -1.44226991E+00  5.47194047E-01  3.22501722E+00 -1.44226991E+00
  5.47194047E-01 -3.01919421E+00  3.51064698E+00  1.26661263E-01 -3.01919421E+00
  3.51064698E+00  1.26661263E-01 -3.01919421E+00  3.51064698E+00  1.26661263E-01
 -3.01919421E+00  3.51064698E+00  1.26661263E-01 -3.01919421E+00  3.51064698E+00
  1.26661263E-01 -3.01919421E+00  3.51064698E+00  1.26661263E-01 -1.55714230E+00
  4.69837833E+00 -7.20861738E-01 -1.55714230E+00  4.69837833E+00 -7.20861738E-01
 -1.55714230E+00  4.69837833E+00 -7.20861738E-01 -1.55714230E+00  4.69837833E+00
 -7.20861738E-01 -1.55714230E+00  4.69837833E+00 -7.20861738E-01 -4.74212015E+00
  3.72770565E+00 -9.91007258E-01 -4.74212015E+00  3.72770565E+00 -9.91007258E-01
 -4.74212015E+00  3.72770565E+00 -9.91007258E-01 -4.74212015E+00  3.72770565E+00
 -9.91007258E-01 -4.74212015E+00  3.72770565E+00 -9.91007258E-01 -3.38838760E+00
  4.19031988E+00  2.03593084E+00 -3.38838760E+00  4.19031988E+00  2.03593084E+00
 -3.38838760E+00  4.19031988E+00  2.03593084E+00 -3.38838760E+00  4.19031988E+00
  2.03593084E+00 -3.38838760E+00  4.19031988E+00  2.03593084E+00
Constraint Structure                       R   N=          54
 -2.31612017E+00  6.89491019E-01  2.43615976E-01 -1.86780722E+00 -1.03102008E+00
  2.10292740E+00 -8.57334002E-01 -3.22770410E+00  8.67939172E-01 -7.70649637E-01
 -2.65951856E+00 -1.64344057E+00 -1.65145570E+00 -2.74113920E-01 -2.05324110E+00
 -2.21333281E+00 -7.78019795E-01  4.09386857E+00 -2.95746018E-01 -4.98738255E+00
  1.72761650E+00 -1.66870724E-01 -3.68075788E+00 -3.29532794E+00  4.39884695E+00
  2.08548855E+00 -3.05005547E-01  3.49221650E+00  2.02116538E+00 -2.16453898E+00
  3.20331542E+00  3.18322040E+00  9.80355575E-01  6.21312891E+00  3.04080785E+00
 -4.91096423E-01  4.90289655E+00 -3.72964048E-01  6.52427556E-01  3.31869976E+00
 -1.25743979E+00  7.65665948E-01 -3.37230149E+00  3.40116910E+00  2.23110421E-01
 -1.98188494E+00  4.66035984E+00 -5.31669414E-01 -5.03581924E+00  3.46790214E+00
 -9.24394497E-01 -3.83304025E+00  3.95933250E+00  2.11114790E+00
Num ILSW                                   I              100
ILSW                                       I   N=         100
           0           0           0           0           2           0
           0           0           0           0         419          -1
      199974           0           0           0           2           0
           0           0           1           0           1           0
           1           0           0           0           0           0
           0           0      100000           0          -1           0
           0           0           0           0           0           0
           0           0           0           1           1           0
           0           0           1           0           0           0
           0           0         141          41           0           0
           0           0          60           0           0           0
           0           0           0           0           0           0
           0           0           0           0           0           0
           0           0           0           0           0           0
           0           0           0           0           0           0
           0           0           0           0           0           0
           0           0           0           0
Num RLSW                                   I               41
RLSW                                       R   N=          41
  4.70000000E-01  4.70000000E-01  7.30000000E-01  7.30000000E-01  5.30000000E-01
  0.00000000E+00  0.00000000E+00  1.00000000E+00  0.00000000E+00  0.00000000E+00
  0.00000000E+00  0.00000000E+00  1.00000000E+00  0.00000000E+00  0.00000000E+00
  0.00000000E+00  0.00000000E+00  1.00000000E+00  0.00000000E+00  0.00000000E+00
  0.00000000E+00  0.00000000E+00  1.00000000E+00  0.00000000E+00  0.00000000E+00
  0.00000000E+00  0.00000000E+00  1.00000000E+00  0.00000000E+00  0.00000000E+00
  0.00000000E+00  0.00000000E+00  1.00000000E+00  0.00000000E+00  0.00000000E+00
  0.00000000E+00  0.00000000E+00  0.00000000E+00  2.70000000E-01  2.70000000E-01
  0.00000000E+00
MxBond                                     I                4
NBond                                      I   N=          18
           3           3           4           3           2           1
           1           1           4           1           1           1
           2           2           4           1           1           1
IBond                                      I   N=          72
           2           5          15           0           1           3
           6           0           2           4           7          14
           3           5           8           0           1           4
           0           0           2           0           0           0
           3           0           0           0           4           0
           0           0          10          11          12          13
           9           0           0           0           9           0
           0           0           9           0           0           0
           9          14           0           0           3          13
           0           0           1          16          17          18
          15           0           0           0          15           0
           0           0          15           0           0           0
RBond                                      R   N=          72
  2.00000000E+00  1.00000000E+00  1.00000000E+00  0.00000000E+00  2.00000000E+00
  1.50000000E+00  1.00000000E+00  0.00000000E+00  1.50000000E+00  2.00000000E+00
  1.00000000E+00  1.00000000E-01  2.00000000E+00  1.00000000E+00  1.00000000E+00
  0.00000000E+00  1.00000000E+00  1.00000000E+00  0.00000000E+00  0.00000000E+00
  1.00000000E+00  0.00000000E+00  0.00000000E+00  0.00000000E+00  1.00000000E+00
  0.00000000E+00  0.00000000E+00  0.00000000E+00  1.00000000E+00  0.00000000E+00
  0.00000000E+00  0.00000000E+00  1.00000000E+00  1.00000000E+00  1.00000000E+00
  1.00000000E+00  1.00000000E+00  0.00000000E+00  0.00000000E+00  0.00000000E+00
  1.00000000E+00  0.00000000E+00  0.00000000E+00  0.00000000E+00  1.00000000E+00
  0.00000000E+00  0.00000000E+00  0.00000000E+00  1.00000000E+00  1.00000000E+00
  0.00000000E+00  0.00000000E+00  1.00000000E-01  1.00000000E+00  0.00000000E+00
  0.00000000E+00  1.00000000E+00  1.00000000E+00  1.00000000E+00  1.00000000E+00
  1.00000000E+00  0.00000000E+00  0.00000000E+00  0.00000000E+00  1.00000000E+00
  0.00000000E+00  0.00000000E+00  0.00000000E+00  1.00000000E+00  0.00000000E+00
  0.00000000E+00  0.00000000E+00
Virial Ratio                               R      2.002924779230570E+00
SCF Energy                                 R     -3.843920417057161E+02
MP2 Energy                                 R     -3.848153217998584E+02
Total Energy                               R     -3.848153217998584E+02
Post-SCF wavefunction norm                 R      1.809021026206705E+00